 Entering Gaussian System, Link 0=/opt/g09/g09
 Initial command:
 /opt/g09/l1.exe /tmp/webmo-4020/5419/Gau-3114.inp -scrdir=/tmp/webmo-4020/5419/
 Entering Link 1 = /opt/g09/l1.exe PID=      3115.
  
 Copyright (c) 1988,1990,1992,1993,1995,1998,2003,2009, Gaussian, Inc.
                  All Rights Reserved.
  
 This is part of the Gaussian(R) 09 program.  It is based on
 the Gaussian(R) 03 system (copyright 2003, Gaussian, Inc.),
 the Gaussian(R) 98 system (copyright 1998, Gaussian, Inc.),
 the Gaussian(R) 94 system (copyright 1995, Gaussian, Inc.),
 the Gaussian 92(TM) system (copyright 1992, Gaussian, Inc.),
 the Gaussian 90(TM) system (copyright 1990, Gaussian, Inc.),
 the Gaussian 88(TM) system (copyright 1988, Gaussian, Inc.),
 the Gaussian 86(TM) system (copyright 1986, Carnegie Mellon
 University), and the Gaussian 82(TM) system (copyright 1983,
 Carnegie Mellon University). Gaussian is a federally registered
 trademark of Gaussian, Inc.
  
 This software contains proprietary and confidential information,
 including trade secrets, belonging to Gaussian, Inc.
  
 This software is provided under written license and may be
 used, copied, transmitted, or stored only in accord with that
 written license.
  
 The following legend is applicable only to US Government
 contracts under FAR:
  
                    RESTRICTED RIGHTS LEGEND
  
 Use, reproduction and disclosure by the US Government is
 subject to restrictions as set forth in subparagraphs (a)
 and (c) of the Commercial Computer Software - Restricted
 Rights clause in FAR 52.227-19.
  
 Gaussian, Inc.
 340 Quinnipiac St., Bldg. 40, Wallingford CT 06492
  
  
 ---------------------------------------------------------------
 Warning -- This program may not be used in any manner that
 competes with the business of Gaussian, Inc. or will provide
 assistance to any competitor of Gaussian, Inc.  The licensee
 of this program is prohibited from giving any competitor of
 Gaussian, Inc. access to this program.  By using this program,
 the user acknowledges that Gaussian, Inc. is engaged in the
 business of creating and licensing software in the field of
 computational chemistry and represents and warrants to the
 licensee that it is not a competitor of Gaussian, Inc. and that
 it will not use this program in any manner prohibited above.
 ---------------------------------------------------------------
  

 Cite this work as:
 Gaussian 09, Revision A.02,
 M. J. Frisch, G. W. Trucks, H. B. Schlegel, G. E. Scuseria, 
 M. A. Robb, J. R. Cheeseman, G. Scalmani, V. Barone, B. Mennucci, 
 G. A. Petersson, H. Nakatsuji, M. Caricato, X. Li, H. P. Hratchian, 
 A. F. Izmaylov, J. Bloino, G. Zheng, J. L. Sonnenberg, M. Hada, 
 M. Ehara, K. Toyota, R. Fukuda, J. Hasegawa, M. Ishida, T. Nakajima, 
 Y. Honda, O. Kitao, H. Nakai, T. Vreven, J. A. Montgomery, Jr., 
 J. E. Peralta, F. Ogliaro, M. Bearpark, J. J. Heyd, E. Brothers, 
 K. N. Kudin, V. N. Staroverov, R. Kobayashi, J. Normand, 
 K. Raghavachari, A. Rendell, J. C. Burant, S. S. Iyengar, J. Tomasi, 
 M. Cossi, N. Rega, J. M. Millam, M. Klene, J. E. Knox, J. B. Cross, 
 V. Bakken, C. Adamo, J. Jaramillo, R. Gomperts, R. E. Stratmann, 
 O. Yazyev, A. J. Austin, R. Cammi, C. Pomelli, J. W. Ochterski, 
 R. L. Martin, K. Morokuma, V. G. Zakrzewski, G. A. Voth, 
 P. Salvador, J. J. Dannenberg, S. Dapprich, A. D. Daniels, 
 O. Farkas, J. B. Foresman, J. V. Ortiz, J. Cioslowski, 
 and D. J. Fox, Gaussian, Inc., Wallingford CT, 2009.
 
 ******************************************
 Gaussian 09:  EM64L-G09RevA.02 11-Jun-2009
                26-Oct-2016 
 ******************************************
 %MEM=1500MB
 ---------------------------------------
 #N B3LYP/LANL2DZ FREQ Geom=Connectivity
 ---------------------------------------
 1/10=4,30=1,38=1,57=2/1,3;
 2/12=2,17=6,18=5,40=1/2;
 3/5=6,6=3,11=2,16=1,25=1,30=1,71=2,74=-5/1,2,3;
 4//1;
 5/5=2,38=5,98=1/2;
 8/6=4,10=90,11=11/1;
 11/6=1,8=1,9=11,15=111,16=1/1,2,10;
 10/6=1/2;
 6/7=2,8=2,9=2,10=2,18=1,28=1/1;
 7/8=1,10=1,25=1/1,2,3,16;
 1/10=4,30=1/3;
 99//99;
 --------
 Kubas H2
 --------
 Symbolic Z-matrix:
 Charge =  0 Multiplicity = 1
 W                     0.        0.        0. 
 P                     2.59946   0.04477   0.01142 
 C                     3.39646  -0.37856   1.73114 
 C                     4.94005  -0.31056   1.79249 
 H                     5.34703   0.62219   1.38463 
 H                     5.26145  -0.38001   2.84145 
 H                     5.39838  -1.14987   1.25632 
 C                     2.89009  -1.71202   2.32592 
 H                     3.30025  -2.57863   1.7964 
 H                     3.20865  -1.7809    3.37563 
 H                     1.80016  -1.78542   2.30081 
 H                     2.99156   0.42809   2.35871 
 C                     3.39549   1.77309  -0.35665 
 C                     2.96321   2.31278  -1.73924 
 H                     1.89123   2.54321  -1.76424 
 H                     3.50748   3.24193  -1.9591 
 H                     3.16793   1.60561  -2.55145 
 C                     3.09593   2.80243   0.7552 
 H                     3.53712   2.51745   1.71728 
 H                     3.51381   3.77956   0.4755 
 H                     2.01664   2.93317   0.9064 
 H                     4.47913   1.60185  -0.38028 
 C                     3.41393  -1.06055  -1.36923 
 C                     3.24612  -2.57224  -1.08906 
 H                     2.22629  -2.83651  -0.79702 
 H                     3.49067  -3.1364   -1.99983 
 H                     3.92954  -2.9111   -0.30065 
 C                     4.884    -0.74252  -1.73275 
 H                     5.56904  -0.94796  -0.90323 
 H                     5.18502  -1.38408  -2.57341 
 H                     5.03059   0.29564  -2.04936 
 H                     2.79073  -0.81533  -2.24009 
 P                    -2.59819   0.04496  -0.01128 
 C                    -3.40006  -0.6625    1.61865 
 C                    -4.8418   -0.19736   1.93581 
 H                    -5.1486   -0.63553   2.89634 
 H                    -4.92749   0.88962   2.03458 
 H                    -5.56048  -0.5314    1.17953 
 C                    -3.31133  -2.20466   1.69999 
 H                    -3.53321  -2.52329   2.72804 
 H                    -4.05026  -2.68052   1.04349 
 H                    -2.3218   -2.58816   1.43953 
 H                    -2.73292  -0.25008   2.38791 
 C                    -3.39215   1.81004  -0.10796 
 C                    -2.92259   2.70146   1.06411 
 H                    -1.84904   2.91465   0.9983 
 H                    -3.45624   3.66177   1.03593 
 H                    -3.10695   2.24412   2.04309 
 C                    -3.12611   2.49951  -1.4643 
 H                    -3.55324   3.51195  -1.45257 
 H                    -3.57838   1.95939  -2.30431 
 H                    -2.05129   2.59536  -1.66607 
 H                    -4.47383   1.65267  -0.01094 
 C                    -3.41246  -0.81942  -1.54717 
 C                    -4.95658  -0.7673   -1.60383 
 H                    -5.40735  -1.42118  -0.84795 
 H                    -5.35754   0.24406  -1.46758 
 H                    -5.29357  -1.12552  -2.58689 
 C                    -2.90874  -2.26325  -1.77265 
 H                    -1.81887  -2.32831  -1.72759 
 H                    -3.32082  -2.96066  -1.03591 
 H                    -3.2252   -2.60359  -2.76872 
 H                    -3.01613  -0.20788  -2.37046 
 C                     0.04179  -0.27215  -1.98972 
 O                     0.07855  -0.43131  -3.1761 
 C                    -0.02956   0.38153   1.97288 
 O                    -0.05181   0.61045   3.14816 
 C                    -0.00825  -1.9242    0.3182 
 O                    -0.01385  -3.11206   0.51326 
 H                    -0.4035    1.86655  -0.34706 
 H                     0.41214   1.87685  -0.27006 
 

 GradGradGradGradGradGradGradGradGradGradGradGradGradGradGradGradGradGrad
 Berny optimization.
 Initialization pass.
 Trust Radius=3.00D-01 FncErr=1.00D-07 GrdErr=1.00D-07
 Number of steps in this run=   2 maximum allowed number of steps=   2.
 GradGradGradGradGradGradGradGradGradGradGradGradGradGradGradGradGradGrad

 Stoichiometry    C21H44O3P2W
 Framework group  C1[X(C21H44O3P2W)]
 Deg. of freedom   207
 Full point group                 C1      NOp   1
 Largest Abelian subgroup         C1      NOp   1
 Largest concise Abelian subgroup C1      NOp   1
                         Standard orientation:                         
 ---------------------------------------------------------------------
 Center     Atomic      Atomic             Coordinates (Angstroms)
 Number     Number       Type             X           Y           Z
 ---------------------------------------------------------------------
      1         74           0        0.000890    0.095076   -0.021345
      2         15           0        2.600345    0.139849   -0.009923
      3          6           0        3.397352   -0.283482    1.709799
      4          6           0        4.940937   -0.215486    1.771147
      5          1           0        5.347921    0.717268    1.363280
      6          1           0        5.262335   -0.284936    2.820106
      7          1           0        5.399272   -1.054793    1.234974
      8          6           0        2.890975   -1.616944    2.304578
      9          1           0        3.301135   -2.483556    1.775050
     10          1           0        3.209543   -1.685822    3.354282
     11          1           0        1.801054   -1.690341    2.279463
     12          1           0        2.992451    0.523162    2.337361
     13          6           0        3.396384    1.868163   -0.377998
     14          6           0        2.964104    2.407853   -1.760582
     15          1           0        1.892124    2.638282   -1.785587
     16          1           0        3.508373    3.337006   -1.980441
     17          1           0        3.168820    1.700681   -2.572794
     18          6           0        3.096816    2.897509    0.733850
     19          1           0        3.538012    2.612522    1.695932
     20          1           0        3.514696    3.874640    0.454153
     21          1           0        2.017527    3.028243    0.885056
     22          1           0        4.480018    1.696922   -0.401621
     23          6           0        3.414822   -0.965475   -1.390575
     24          6           0        3.247011   -2.477164   -1.110403
     25          1           0        2.227183   -2.741429   -0.818361
     26          1           0        3.491556   -3.041323   -2.021178
     27          1           0        3.930427   -2.816027   -0.321995
     28          6           0        4.884887   -0.647441   -1.754096
     29          1           0        5.569930   -0.852888   -0.924577
     30          1           0        5.185906   -1.289004   -2.594759
     31          1           0        5.031475    0.390719   -2.070709
     32          1           0        2.791618   -0.720249   -2.261433
     33         15           0       -2.597301    0.140034   -0.032625
     34          6           0       -3.399170   -0.567421    1.597302
     35          6           0       -4.840910   -0.102285    1.914467
     36          1           0       -5.147715   -0.540449    2.874994
     37          1           0       -4.926599    0.984699    2.013232
     38          1           0       -5.559594   -0.436320    1.158186
     39          6           0       -3.310444   -2.109587    1.678646
     40          1           0       -3.532319   -2.428214    2.706692
     41          1           0       -4.049366   -2.585441    1.022148
     42          1           0       -2.320913   -2.493083    1.418184
     43          1           0       -2.732025   -0.155000    2.366566
     44          6           0       -3.391263    1.905113   -0.129306
     45          6           0       -2.921701    2.796535    1.042760
     46          1           0       -1.848152    3.009730    0.976952
     47          1           0       -3.455352    3.756845    1.014584
     48          1           0       -3.106058    2.339199    2.021749
     49          6           0       -3.125218    2.594583   -1.485640
     50          1           0       -3.552352    3.607023   -1.473917
     51          1           0       -3.577488    2.054470   -2.325654
     52          1           0       -2.050403    2.690437   -1.687411
     53          1           0       -4.472944    1.747746   -0.032281
     54          6           0       -3.411570   -0.724343   -1.568513
     55          6           0       -4.955692   -0.672224   -1.625171
     56          1           0       -5.406464   -1.326104   -0.869292
     57          1           0       -5.356647    0.339138   -1.488926
     58          1           0       -5.292681   -1.030444   -2.608239
     59          6           0       -2.907847   -2.168171   -1.793998
     60          1           0       -1.817975   -2.233233   -1.748930
     61          1           0       -3.319926   -2.865579   -1.057254
     62          1           0       -3.224309   -2.508518   -2.790069
     63          1           0       -3.015238   -0.112802   -2.391808
     64          6           0        0.042680   -0.177075   -2.011063
     65          8           0        0.079435   -0.336229   -3.197448
     66          6           0       -0.028668    0.476610    1.951536
     67          8           0       -0.050917    0.705524    3.126815
     68          6           0       -0.007364   -1.829120    0.296858
     69          8           0       -0.012959   -3.016985    0.491915
     70          1           0       -0.402609    1.961627   -0.368401
     71          1           0        0.413034    1.971927   -0.291408
 ---------------------------------------------------------------------
 Rotational constants (GHZ):      0.2340013      0.1007006      0.1003548
 Standard basis: LANL2DZ (5D, 7F)
 There are   342 symmetry adapted basis functions of A   symmetry.
 Integral buffers will be    131072 words long.
 Raffenetti 2 integral format.
 Two-electron integral symmetry is turned on.
   342 basis functions,   843 primitive gaussians,   344 cartesian basis functions
   109 alpha electrons      109 beta electrons
       nuclear repulsion energy      2870.6867396098 Hartrees.
 NAtoms=   71 NActive=   71 NUniq=   71 SFac= 7.50D-01 NAtFMM=   80 NAOKFM=F Big=T
 One-electron integrals computed using PRISM.
   1 Symmetry operations used in ECPInt.
 ECPInt:  NShTT=   25200 NPrTT=  160149 LenC2=   22933 LenP2D=   82974.
 LDataN:  DoStor=T MaxTD1= 6 Len=  172
 NBasis=   342 RedAO= T  NBF=   342
 NBsUse=   342 1.00D-06 NBFU=   342
 Defaulting to unpruned grid for atomic number  74.
 Harris functional with IExCor=  402 diagonalized for initial guess.
 ExpMin= 2.80D-02 ExpMax= 7.82D+03 ExpMxC= 2.73D+02 IAcc=3 IRadAn=         0 AccDes= 0.00D+00
 HarFok:  IExCor=  402 AccDes= 0.00D+00 IRadAn=         0 IDoV= 1
 ScaDFX=  1.000000  1.000000  1.000000  1.000000
 Defaulting to unpruned grid for atomic number  74.
 FoFCou: FMM=F IPFlag=           0 FMFlag=      100000 FMFlg1=           1
         NFxFlg=           0 DoJE=T BraDBF=F KetDBF=T FulRan=T
         Omega=  0.000000  0.000000  1.000000  0.000000  0.000000 ICntrl=     500 IOpCl=  0
         NMat0=    1 NMatS0=    1 NMatT0=    0 NMatD0=    1 NMtDS0=    0 NMtDT0=    0
         I1Cent=           4 NGrid=           0.
 Petite list used in FoFCou.
 Initial guess orbital symmetries:
       Occupied  (A) (A) (A) (A) (A) (A) (A) (A) (A) (A) (A) (A)
                 (A) (A) (A) (A) (A) (A) (A) (A) (A) (A) (A) (A)
                 (A) (A) (A) (A) (A) (A) (A) (A) (A) (A) (A) (A)
                 (A) (A) (A) (A) (A) (A) (A) (A) (A) (A) (A) (A)
                 (A) (A) (A) (A) (A) (A) (A) (A) (A) (A) (A) (A)
                 (A) (A) (A) (A) (A) (A) (A) (A) (A) (A) (A) (A)
                 (A) (A) (A) (A) (A) (A) (A) (A) (A) (A) (A) (A)
                 (A) (A) (A) (A) (A) (A) (A) (A) (A) (A) (A) (A)
                 (A) (A) (A) (A) (A) (A) (A) (A) (A) (A) (A) (A)
                 (A)
       Virtual   (A) (A) (A) (A) (A) (A) (A) (A) (A) (A) (A) (A)
                 (A) (A) (A) (A) (A) (A) (A) (A) (A) (A) (A) (A)
                 (A) (A) (A) (A) (A) (A) (A) (A) (A) (A) (A) (A)
                 (A) (A) (A) (A) (A) (A) (A) (A) (A) (A) (A) (A)
                 (A) (A) (A) (A) (A) (A) (A) (A) (A) (A) (A) (A)
                 (A) (A) (A) (A) (A) (A) (A) (A) (A) (A) (A) (A)
                 (A) (A) (A) (A) (A) (A) (A) (A) (A) (A) (A) (A)
                 (A) (A) (A) (A) (A) (A) (A) (A) (A) (A) (A) (A)
                 (A) (A) (A) (A) (A) (A) (A) (A) (A) (A) (A) (A)
                 (A) (A) (A) (A) (A) (A) (A) (A) (A) (A) (A) (A)
                 (A) (A) (A) (A) (A) (A) (A) (A) (A) (A) (A) (A)
                 (A) (A) (A) (A) (A) (A) (A) (A) (A) (A) (A) (A)
                 (A) (A) (A) (A) (A) (A) (A) (A) (A) (A) (A) (A)
                 (A) (A) (A) (A) (A) (A) (A) (A) (A) (A) (A) (A)
                 (A) (A) (A) (A) (A) (A) (A) (A) (A) (A) (A) (A)
                 (A) (A) (A) (A) (A) (A) (A) (A) (A) (A) (A) (A)
                 (A) (A) (A) (A) (A) (A) (A) (A) (A) (A) (A) (A)
                 (A) (A) (A) (A) (A) (A) (A) (A) (A) (A) (A) (A)
                 (A) (A) (A) (A) (A) (A) (A) (A) (A) (A) (A) (A)
                 (A) (A) (A) (A) (A)
 The electronic state of the initial guess is 1-A.
 Requested convergence on RMS density matrix=1.00D-08 within 128 cycles.
 Requested convergence on MAX density matrix=1.00D-06.
 Requested convergence on             energy=1.00D-06.
 No special actions if energy rises.
 Defaulting to unpruned grid for atomic number  74.
 EnCoef did   100 forward-backward iterations
 EnCoef did     5 forward-backward iterations
 EnCoef did     2 forward-backward iterations
 SCF Done:  E(RB3LYP) =  -1133.13187913     A.U. after   18 cycles
             Convg  =    0.8311D-08             -V/T =  2.0572
 Range of M.O.s used for correlation:     1   342
 NBasis=   342 NAE=   109 NBE=   109 NFC=     0 NFV=     0
 NROrb=    342 NOA=   109 NOB=   109 NVA=   233 NVB=   233
   1 Symmetry operations used in ECPInt.
 ECPInt:  NShTT=   25200 NPrTT=  160149 LenC2=   22933 LenP2D=   82974.
 LDataN:  DoStor=T MaxTD1= 7 Len=  274
 Symmetrizing basis deriv contribution to polar:
 IMax=3 JMax=2 DiffMx= 0.00D+00
 G2DrvN: will do    72 centers at a time, making    1 passes doing MaxLOS=2.
 Calling FoFCou, ICntrl=  3107 FMM=T I1Cent=   0 AccDes= 0.00D+00.
 Defaulting to unpruned grid for atomic number  74.
 FoFDir/FoFCou used for L=0 through L=2.
 End of G2Drv Frequency-dependent properties file   721 does not exist.
 End of G2Drv Frequency-dependent properties file   722 does not exist.
          IDoAtm=11111111111111111111111111111111111111111111111111
          IDoAtm=111111111111111111111
          Differentiating once with respect to electric field.
                with respect to dipole field.
          Differentiating once with respect to nuclear coordinates.
 Defaulting to unpruned grid for atomic number  74.
 Defaulting to unpruned grid for atomic number  74.
          There are   216 degrees of freedom in the 1st order CPHF.  IDoFFX=5.
    216 vectors produced by pass  0 Test12= 2.54D-14 1.00D-09 XBig12= 7.38D+02 1.63D+01.
 AX will form    72 AO Fock derivatives at one time.
    213 vectors produced by pass  1 Test12= 2.54D-14 1.00D-09 XBig12= 4.84D+02 4.83D+00.
    213 vectors produced by pass  2 Test12= 2.54D-14 1.00D-09 XBig12= 2.76D+00 1.48D-01.
    213 vectors produced by pass  3 Test12= 2.54D-14 1.00D-09 XBig12= 4.35D-03 6.13D-03.
    213 vectors produced by pass  4 Test12= 2.54D-14 1.00D-09 XBig12= 4.13D-06 1.93D-04.
     86 vectors produced by pass  5 Test12= 2.54D-14 1.00D-09 XBig12= 3.07D-09 6.89D-06.
      6 vectors produced by pass  6 Test12= 2.54D-14 1.00D-09 XBig12= 1.76D-12 1.71D-07.
      2 vectors produced by pass  7 Test12= 2.54D-14 1.00D-09 XBig12= 1.29D-15 3.02D-09.
 Inverted reduced A of dimension  1162 with in-core refinement.
 Isotropic polarizability for W=    0.000000      335.49 Bohr**3.
 End of Minotr Frequency-dependent properties file   721 does not exist.
 End of Minotr Frequency-dependent properties file   722 does not exist.

 **********************************************************************

            Population analysis using the SCF density.

 **********************************************************************

 Orbital symmetries:
       Occupied  (A) (A) (A) (A) (A) (A) (A) (A) (A) (A) (A) (A)
                 (A) (A) (A) (A) (A) (A) (A) (A) (A) (A) (A) (A)
                 (A) (A) (A) (A) (A) (A) (A) (A) (A) (A) (A) (A)
                 (A) (A) (A) (A) (A) (A) (A) (A) (A) (A) (A) (A)
                 (A) (A) (A) (A) (A) (A) (A) (A) (A) (A) (A) (A)
                 (A) (A) (A) (A) (A) (A) (A) (A) (A) (A) (A) (A)
                 (A) (A) (A) (A) (A) (A) (A) (A) (A) (A) (A) (A)
                 (A) (A) (A) (A) (A) (A) (A) (A) (A) (A) (A) (A)
                 (A) (A) (A) (A) (A) (A) (A) (A) (A) (A) (A) (A)
                 (A)
       Virtual   (A) (A) (A) (A) (A) (A) (A) (A) (A) (A) (A) (A)
                 (A) (A) (A) (A) (A) (A) (A) (A) (A) (A) (A) (A)
                 (A) (A) (A) (A) (A) (A) (A) (A) (A) (A) (A) (A)
                 (A) (A) (A) (A) (A) (A) (A) (A) (A) (A) (A) (A)
                 (A) (A) (A) (A) (A) (A) (A) (A) (A) (A) (A) (A)
                 (A) (A) (A) (A) (A) (A) (A) (A) (A) (A) (A) (A)
                 (A) (A) (A) (A) (A) (A) (A) (A) (A) (A) (A) (A)
                 (A) (A) (A) (A) (A) (A) (A) (A) (A) (A) (A) (A)
                 (A) (A) (A) (A) (A) (A) (A) (A) (A) (A) (A) (A)
                 (A) (A) (A) (A) (A) (A) (A) (A) (A) (A) (A) (A)
                 (A) (A) (A) (A) (A) (A) (A) (A) (A) (A) (A) (A)
                 (A) (A) (A) (A) (A) (A) (A) (A) (A) (A) (A) (A)
                 (A) (A) (A) (A) (A) (A) (A) (A) (A) (A) (A) (A)
                 (A) (A) (A) (A) (A) (A) (A) (A) (A) (A) (A) (A)
                 (A) (A) (A) (A) (A) (A) (A) (A) (A) (A) (A) (A)
                 (A) (A) (A) (A) (A) (A) (A) (A) (A) (A) (A) (A)
                 (A) (A) (A) (A) (A) (A) (A) (A) (A) (A) (A) (A)
                 (A) (A) (A) (A) (A) (A) (A) (A) (A) (A) (A) (A)
                 (A) (A) (A) (A) (A) (A) (A) (A) (A) (A) (A) (A)
                 (A) (A) (A) (A) (A)
 The electronic state is 1-A.
 Alpha  occ. eigenvalues --  -19.18677 -19.18646 -19.16551 -10.27315 -10.27288
 Alpha  occ. eigenvalues --  -10.25938 -10.20568 -10.20546 -10.20289 -10.20283
 Alpha  occ. eigenvalues --  -10.20268 -10.20255 -10.18517 -10.18480 -10.18411
 Alpha  occ. eigenvalues --  -10.18376 -10.18358 -10.18342 -10.18163 -10.18138
 Alpha  occ. eigenvalues --  -10.17242 -10.17225 -10.16941 -10.16937  -2.94430
 Alpha  occ. eigenvalues --   -1.62840  -1.62620  -1.61607  -1.09660  -1.09591
 Alpha  occ. eigenvalues --   -1.07576  -0.81329  -0.81299  -0.78548  -0.78541
 Alpha  occ. eigenvalues --   -0.78208  -0.78189  -0.69470  -0.69458  -0.69045
 Alpha  occ. eigenvalues --   -0.69033  -0.68263  -0.68257  -0.65681  -0.65493
 Alpha  occ. eigenvalues --   -0.58956  -0.58865  -0.58769  -0.58749  -0.55952
 Alpha  occ. eigenvalues --   -0.52939  -0.52608  -0.51874  -0.51706  -0.49767
 Alpha  occ. eigenvalues --   -0.47439  -0.46828  -0.46579  -0.46226  -0.45143
 Alpha  occ. eigenvalues --   -0.45113  -0.44448  -0.44301  -0.43524  -0.43437
 Alpha  occ. eigenvalues --   -0.43365  -0.42114  -0.41777  -0.41413  -0.41401
 Alpha  occ. eigenvalues --   -0.41185  -0.41084  -0.40964  -0.40847  -0.40448
 Alpha  occ. eigenvalues --   -0.40282  -0.39991  -0.39812  -0.39652  -0.39551
 Alpha  occ. eigenvalues --   -0.39328  -0.39301  -0.39042  -0.38719  -0.38430
 Alpha  occ. eigenvalues --   -0.37503  -0.37422  -0.36564  -0.35922  -0.35800
 Alpha  occ. eigenvalues --   -0.35476  -0.35446  -0.34994  -0.34611  -0.34546
 Alpha  occ. eigenvalues --   -0.34495  -0.34401  -0.34387  -0.34223  -0.34015
 Alpha  occ. eigenvalues --   -0.30100  -0.29897  -0.29476  -0.29243  -0.29077
 Alpha  occ. eigenvalues --   -0.25766  -0.20083  -0.18597  -0.18456
 Alpha virt. eigenvalues --   -0.03911  -0.03751   0.00490   0.00902   0.03833
 Alpha virt. eigenvalues --    0.04166   0.04242   0.04472   0.05604   0.06464
 Alpha virt. eigenvalues --    0.06962   0.07047   0.07116   0.08222   0.08414
 Alpha virt. eigenvalues --    0.09082   0.09250   0.10640   0.11303   0.11331
 Alpha virt. eigenvalues --    0.11814   0.11935   0.12172   0.12916   0.13587
 Alpha virt. eigenvalues --    0.13729   0.13743   0.14150   0.14293   0.15070
 Alpha virt. eigenvalues --    0.15099   0.15456   0.15677   0.15747   0.15972
 Alpha virt. eigenvalues --    0.16567   0.16722   0.16774   0.17232   0.17465
 Alpha virt. eigenvalues --    0.17985   0.18088   0.18380   0.18736   0.18875
 Alpha virt. eigenvalues --    0.19327   0.19384   0.19908   0.19970   0.20091
 Alpha virt. eigenvalues --    0.20380   0.20878   0.21094   0.21589   0.21947
 Alpha virt. eigenvalues --    0.22153   0.22230   0.22751   0.23257   0.23597
 Alpha virt. eigenvalues --    0.23811   0.24162   0.24929   0.25088   0.25929
 Alpha virt. eigenvalues --    0.26038   0.26569   0.26665   0.27059   0.27365
 Alpha virt. eigenvalues --    0.27989   0.28614   0.28664   0.29464   0.29776
 Alpha virt. eigenvalues --    0.29896   0.29974   0.30107   0.30924   0.31470
 Alpha virt. eigenvalues --    0.31753   0.32329   0.33156   0.33546   0.34791
 Alpha virt. eigenvalues --    0.35004   0.35123   0.35997   0.36195   0.36384
 Alpha virt. eigenvalues --    0.36749   0.37165   0.37457   0.38224   0.38455
 Alpha virt. eigenvalues --    0.38727   0.38888   0.39341   0.39587   0.39683
 Alpha virt. eigenvalues --    0.40618   0.41032   0.41319   0.41513   0.42343
 Alpha virt. eigenvalues --    0.42591   0.43272   0.44246   0.44631   0.45113
 Alpha virt. eigenvalues --    0.45763   0.45994   0.46443   0.46669   0.47732
 Alpha virt. eigenvalues --    0.47934   0.48163   0.49686   0.50027   0.50756
 Alpha virt. eigenvalues --    0.51334   0.52182   0.52294   0.53109   0.53666
 Alpha virt. eigenvalues --    0.54492   0.54775   0.54966   0.55451   0.55662
 Alpha virt. eigenvalues --    0.56907   0.57374   0.58888   0.59282   0.61353
 Alpha virt. eigenvalues --    0.61696   0.63878   0.64432   0.66504   0.66887
 Alpha virt. eigenvalues --    0.68395   0.68605   0.69822   0.70120   0.73631
 Alpha virt. eigenvalues --    0.74069   0.74367   0.75611   0.75870   0.78057
 Alpha virt. eigenvalues --    0.79298   0.80369   0.80871   0.86898   0.87012
 Alpha virt. eigenvalues --    0.88991   0.89188   0.91854   0.92909   0.95184
 Alpha virt. eigenvalues --    0.95381   0.95671   0.97739   1.00187   1.00446
 Alpha virt. eigenvalues --    1.01285   1.03336   1.05120   1.07386   1.07918
 Alpha virt. eigenvalues --    1.08813   1.09515   1.09914   1.11063   1.11246
 Alpha virt. eigenvalues --    1.12186   1.12601   1.12740   1.12976   1.13576
 Alpha virt. eigenvalues --    1.14254   1.14411   1.14935   1.15998   1.16456
 Alpha virt. eigenvalues --    1.16758   1.17398   1.17782   1.18213   1.19347
 Alpha virt. eigenvalues --    1.19454   1.19731   1.19926   1.21426   1.22741
 Alpha virt. eigenvalues --    1.23816   1.24000   1.24441   1.25205   1.25637
 Alpha virt. eigenvalues --    1.26792   1.27319   1.28883   1.29371   1.31161
 Alpha virt. eigenvalues --    1.32012   1.33673   1.34184   1.34844   1.35735
 Alpha virt. eigenvalues --    1.37850   1.38321   1.39829   1.40645   1.42096
 Alpha virt. eigenvalues --    1.43138   1.43596   1.44850   1.45859   1.46957
 Alpha virt. eigenvalues --    1.47322   1.47920   1.49724   1.53692   1.56068
 Alpha virt. eigenvalues --    1.59245   1.61514   1.80745   1.91757   1.94784
 Alpha virt. eigenvalues --   13.81111  18.08952  20.32812
          Condensed to atoms (all electrons):
 Mulliken atomic charges:
              1
     1  W   -0.280912
     2  P    0.666848
     3  C   -0.285780
     4  C   -0.637293
     5  H    0.204790
     6  H    0.202717
     7  H    0.198611
     8  C   -0.631543
     9  H    0.204378
    10  H    0.194556
    11  H    0.249258
    12  H    0.231041
    13  C   -0.271492
    14  C   -0.647961
    15  H    0.218018
    16  H    0.201264
    17  H    0.220254
    18  C   -0.653508
    19  H    0.215408
    20  H    0.201588
    21  H    0.221449
    22  H    0.217938
    23  C   -0.293591
    24  C   -0.643986
    25  H    0.259061
    26  H    0.199148
    27  H    0.188859
    28  C   -0.646240
    29  H    0.211455
    30  H    0.202713
    31  H    0.212003
    32  H    0.242067
    33  P    0.665738
    34  C   -0.296015
    35  C   -0.649193
    36  H    0.203143
    37  H    0.213047
    38  H    0.212573
    39  C   -0.646832
    40  H    0.199517
    41  H    0.187569
    42  H    0.260909
    43  H    0.244735
    44  C   -0.272580
    45  C   -0.645885
    46  H    0.218648
    47  H    0.200401
    48  H    0.219913
    49  C   -0.654296
    50  H    0.202188
    51  H    0.215407
    52  H    0.220111
    53  H    0.220808
    54  C   -0.283500
    55  C   -0.640297
    56  H    0.199338
    57  H    0.205324
    58  H    0.202854
    59  C   -0.635515
    60  H    0.248725
    61  H    0.207441
    62  H    0.195325
    63  H    0.230244
    64  C   -0.048851
    65  O   -0.204878
    66  C   -0.046566
    67  O   -0.205362
    68  C   -0.099449
    69  O   -0.228560
    70  H    0.106542
    71  H    0.106165
 Sum of Mulliken atomic charges =   0.00000
 Mulliken charges with hydrogens summed into heavy atoms:
              1
     1  W   -0.068205
     2  P    0.666848
     3  C   -0.054739
     4  C   -0.031176
     8  C    0.016649
    13  C   -0.053555
    14  C   -0.008424
    18  C   -0.015063
    23  C   -0.051524
    24  C    0.003082
    28  C   -0.020069
    33  P    0.665738
    34  C   -0.051280
    35  C   -0.020429
    39  C    0.001162
    44  C   -0.051772
    45  C   -0.006923
    49  C   -0.016591
    54  C   -0.053257
    55  C   -0.032782
    59  C    0.015976
    64  C   -0.048851
    65  O   -0.204878
    66  C   -0.046566
    67  O   -0.205362
    68  C   -0.099449
    69  O   -0.228560
 Sum of Mulliken charges with hydrogens summed into heavy atoms =   0.00000
 APT atomic charges:
              1
     1  W   -2.112383
     2  P    0.910405
     3  C   -0.094762
     4  C    0.019426
     5  H    0.003249
     6  H   -0.043375
     7  H    0.001755
     8  C    0.021177
     9  H    0.005855
    10  H   -0.033276
    11  H    0.014743
    12  H   -0.016133
    13  C   -0.102610
    14  C    0.016048
    15  H    0.003026
    16  H   -0.035065
    17  H    0.014349
    18  C    0.019615
    19  H    0.003634
    20  H   -0.032146
    21  H    0.006097
    22  H   -0.057694
    23  C   -0.095843
    24  C    0.017008
    25  H    0.035110
    26  H   -0.030419
    27  H   -0.006942
    28  C    0.014759
    29  H    0.005323
    30  H   -0.040599
    31  H    0.003651
    32  H   -0.007992
    33  P    0.909828
    34  C   -0.092495
    35  C    0.013346
    36  H   -0.039636
    37  H    0.003916
    38  H    0.005301
    39  C    0.013458
    40  H   -0.030260
    41  H   -0.008174
    42  H    0.041137
    43  H   -0.008232
    44  C   -0.103774
    45  C    0.016360
    46  H    0.003101
    47  H   -0.035131
    48  H    0.014811
    49  C    0.019153
    50  H   -0.031981
    51  H    0.003536
    52  H    0.006137
    53  H   -0.056836
    54  C   -0.094634
    55  C    0.018732
    56  H    0.002037
    57  H    0.003246
    58  H   -0.043387
    59  C    0.020465
    60  H    0.013716
    61  H    0.006558
    62  H   -0.032707
    63  H   -0.017280
    64  C    1.193575
    65  O   -0.915933
    66  C    1.190186
    67  O   -0.913529
    68  C    1.079899
    69  O   -0.892928
    70  H    0.165582
    71  H    0.166845
 Sum of APT charges=   0.00000
 APT Atomic charges with hydrogens summed into heavy atoms:
              1
     1  W   -1.779956
     2  P    0.910405
     3  C   -0.110895
     4  C   -0.018946
     5  H    0.000000
     6  H    0.000000
     7  H    0.000000
     8  C    0.008499
     9  H    0.000000
    10  H    0.000000
    11  H    0.000000
    12  H    0.000000
    13  C   -0.160303
    14  C   -0.001641
    15  H    0.000000
    16  H    0.000000
    17  H    0.000000
    18  C   -0.002799
    19  H    0.000000
    20  H    0.000000
    21  H    0.000000
    22  H    0.000000
    23  C   -0.103835
    24  C    0.014757
    25  H    0.000000
    26  H    0.000000
    27  H    0.000000
    28  C   -0.016866
    29  H    0.000000
    30  H    0.000000
    31  H    0.000000
    32  H    0.000000
    33  P    0.909828
    34  C   -0.100726
    35  C   -0.017073
    36  H    0.000000
    37  H    0.000000
    38  H    0.000000
    39  C    0.016161
    40  H    0.000000
    41  H    0.000000
    42  H    0.000000
    43  H    0.000000
    44  C   -0.160610
    45  C   -0.000859
    46  H    0.000000
    47  H    0.000000
    48  H    0.000000
    49  C   -0.003155
    50  H    0.000000
    51  H    0.000000
    52  H    0.000000
    53  H    0.000000
    54  C   -0.111914
    55  C   -0.019372
    56  H    0.000000
    57  H    0.000000
    58  H    0.000000
    59  C    0.008031
    60  H    0.000000
    61  H    0.000000
    62  H    0.000000
    63  H    0.000000
    64  C    1.193575
    65  O   -0.915933
    66  C    1.190186
    67  O   -0.913529
    68  C    1.079899
    69  O   -0.892928
    70  H    0.000000
    71  H    0.000000
 Sum of APT charges=   0.00000
 Electronic spatial extent (au):  <R**2>=          12588.4415
 Charge=              0.0000 electrons
 Dipole moment (field-independent basis, Debye):
    X=              0.0086    Y=              3.4173    Z=             -0.5268  Tot=              3.4577
 Quadrupole moment (field-independent basis, Debye-Ang):
   XX=           -171.5994   YY=           -206.6496   ZZ=           -216.9772
   XY=              0.0575   XZ=              0.5540   YZ=             -1.8147
 Traceless Quadrupole moment (field-independent basis, Debye-Ang):
   XX=             26.8093   YY=             -8.2408   ZZ=            -18.5685
   XY=              0.0575   XZ=              0.5540   YZ=             -1.8147
 Octapole moment (field-independent basis, Debye-Ang**2):
  XXX=              0.3171  YYY=             55.2636  ZZZ=              5.4613  XYY=              0.5646
  XXY=              2.2440  XXZ=             -0.8169  XZZ=             -0.3624  YZZ=            -11.4075
  YYZ=            -12.8427  XYZ=              0.8084
 Hexadecapole moment (field-independent basis, Debye-Ang**3):
 XXXX=         -11025.9620 YYYY=          -3418.8316 ZZZZ=          -3328.0471 XXXY=              2.5509
 XXXZ=             14.8897 YYYX=             -7.2952 YYYZ=             24.2525 ZZZX=             17.1371
 ZZZY=            -36.2651 XXYY=          -2336.5830 XXZZ=          -2288.0726 YYZZ=          -1072.9781
 XXYZ=              3.0930 YYXZ=            -15.4054 ZZXY=              7.0098
 N-N= 2.870686739610D+03 E-N=-8.345046235403D+03  KE= 1.071853003514D+03
  Exact polarizability: 373.858   0.023 308.102  -1.202   3.300 324.504
 Approx polarizability: 476.358  -0.211 562.249  -6.428  30.048 740.729
   1 Symmetry operations used in ECPInt.
 ECPInt:  NShTT=   25200 NPrTT=  160149 LenC2=   25201 LenP2D=  140476.
 LDataN:  DoStor=T MaxTD1= 8 Len=  415
 Calling FoFJK, ICntrl=    100127 FMM=F ISym2X=0 I1Cent= 0 IOpClX= 0 NMat=1 NMatS=1 NMatT=0.
 Defaulting to unpruned grid for atomic number  74.
 Full mass-weighted force constant matrix:
 Low frequencies ---   -9.4986   -4.8199   -0.0010   -0.0005    0.0009   17.5078
 Low frequencies ---   26.2296   36.1051   39.9972
 Diagonal vibrational polarizability:
       56.1830513      84.6439991      64.6972972
 Harmonic frequencies (cm**-1), IR intensities (KM/Mole), Raman scattering
 activities (A**4/AMU), depolarization ratios for plane and unpolarized
 incident light, reduced masses (AMU), force constants (mDyne/A),
 and normal coordinates:
                     1                      2                      3
                     A                      A                      A
 Frequencies --    25.2007                35.7690                39.9347
 Red. masses --     3.3609                 4.4656                 4.3478
 Frc consts  --     0.0013                 0.0034                 0.0041
 IR Inten    --     0.1970                 1.6993                 1.5529
  Atom  AN      X      Y      Z        X      Y      Z        X      Y      Z
     1  74     0.00  -0.01  -0.01     0.00   0.05   0.02     0.00  -0.01   0.06
     2  15     0.00   0.01   0.01     0.00  -0.02   0.00     0.00   0.01  -0.01
     3   6    -0.02  -0.06   0.00     0.01  -0.07  -0.01     0.08  -0.01  -0.06
     4   6    -0.02  -0.03   0.03     0.02  -0.17  -0.05     0.08  -0.02  -0.14
     5   1    -0.03  -0.01   0.07     0.07  -0.19  -0.06     0.07  -0.03  -0.15
     6   1    -0.04  -0.06   0.03     0.04  -0.19  -0.06     0.14  -0.03  -0.15
     7   1     0.01  -0.01   0.01    -0.05  -0.20  -0.07     0.05  -0.03  -0.16
     8   6     0.00  -0.10  -0.07    -0.06  -0.03   0.01     0.10  -0.01  -0.05
     9   1     0.00  -0.06  -0.12    -0.14  -0.06   0.00     0.04  -0.01  -0.10
    10   1     0.01  -0.15  -0.08    -0.04  -0.05   0.00     0.18  -0.04  -0.07
    11   1     0.00  -0.10  -0.06    -0.07   0.04   0.04     0.10   0.01   0.03
    12   1    -0.04  -0.10   0.03     0.08  -0.04  -0.01     0.12  -0.01  -0.03
    13   6    -0.01   0.03   0.09     0.05  -0.05   0.01    -0.03   0.02  -0.02
    14   6     0.02   0.07   0.10     0.03  -0.01   0.03    -0.08   0.04   0.00
    15   1     0.01   0.03   0.06     0.04   0.04   0.07    -0.08   0.05   0.05
    16   1    -0.01   0.10   0.16     0.07  -0.04   0.01    -0.08   0.04  -0.01
    17   1     0.08   0.12   0.08    -0.03  -0.02   0.01    -0.12   0.05  -0.01
    18   6    -0.06  -0.01   0.12     0.11  -0.05   0.03     0.01   0.00   0.01
    19   1    -0.09  -0.04   0.12     0.13  -0.07   0.01     0.05   0.00  -0.02
    20   1    -0.07   0.00   0.17     0.13  -0.06   0.02    -0.02   0.01   0.00
    21   1    -0.07  -0.03   0.09     0.12  -0.02   0.06     0.01  -0.01   0.06
    22   1    -0.01   0.05   0.12     0.05  -0.08  -0.03    -0.03   0.03  -0.06
    23   6     0.02   0.08  -0.04    -0.05  -0.05  -0.01    -0.06   0.04  -0.07
    24   6    -0.03   0.07  -0.15    -0.03  -0.04   0.02    -0.05   0.03  -0.09
    25   1    -0.04   0.08  -0.20    -0.02  -0.04   0.05    -0.03   0.03  -0.05
    26   1    -0.02   0.13  -0.18    -0.05  -0.06   0.02    -0.09   0.05  -0.12
    27   1    -0.06  -0.01  -0.15    -0.01  -0.02   0.01    -0.01   0.01  -0.13
    28   6     0.04   0.07   0.03    -0.06  -0.05  -0.07    -0.07   0.05  -0.13
    29   1     0.01  -0.02   0.03    -0.04  -0.01  -0.08    -0.04   0.03  -0.16
    30   1     0.05   0.14  -0.02    -0.08  -0.08  -0.05    -0.11   0.07  -0.15
    31   1     0.08   0.10   0.14    -0.08  -0.06  -0.12    -0.09   0.05  -0.11
    32   1     0.06   0.16  -0.04    -0.08  -0.06   0.01    -0.09   0.05  -0.04
    33  15     0.00   0.01   0.00     0.00  -0.02   0.00     0.00   0.00  -0.02
    34   6     0.02   0.08   0.04     0.01   0.00   0.01    -0.07   0.02  -0.05
    35   6     0.02   0.09   0.03    -0.01  -0.04  -0.01    -0.09   0.02  -0.13
    36   1     0.03   0.14   0.05     0.00  -0.01   0.00    -0.14   0.03  -0.14
    37   1     0.02   0.10  -0.03    -0.04  -0.04  -0.05    -0.09   0.02  -0.13
    38   1     0.01   0.05   0.05     0.00  -0.08   0.00    -0.05   0.03  -0.17
    39   6     0.02   0.08   0.11     0.05   0.00   0.04    -0.08   0.02  -0.03
    40   1     0.04   0.13   0.12     0.03   0.01   0.04    -0.12   0.03  -0.04
    41   1     0.02   0.05   0.14     0.08  -0.03   0.03    -0.05   0.01  -0.06
    42   1     0.02   0.08   0.11     0.06   0.02   0.07    -0.07   0.02   0.01
    43   1     0.02   0.12   0.01    -0.01   0.03   0.00    -0.11   0.02  -0.02
    44   6     0.01   0.01  -0.07    -0.06  -0.05  -0.06     0.02   0.01  -0.06
    45   6     0.02   0.05  -0.11    -0.10   0.00  -0.08    -0.03   0.01  -0.04
    46   1     0.02   0.05  -0.12    -0.11   0.04  -0.08    -0.02  -0.01   0.02
    47   1     0.02   0.05  -0.14    -0.13  -0.02  -0.12    -0.01   0.02  -0.08
    48   1     0.03   0.09  -0.09    -0.09   0.02  -0.07    -0.09   0.02  -0.05
    49   6     0.01  -0.05  -0.10    -0.06  -0.08  -0.08     0.09   0.00  -0.05
    50   1     0.02  -0.05  -0.14    -0.07  -0.08  -0.11     0.10   0.00  -0.08
    51   1    -0.01  -0.08  -0.07    -0.06  -0.11  -0.07     0.14   0.00  -0.07
    52   1     0.01  -0.08  -0.12    -0.06  -0.08  -0.08     0.11   0.00   0.00
    53   1     0.01   0.02  -0.05    -0.05  -0.08  -0.07     0.02   0.02  -0.12
    54   6    -0.02  -0.05   0.04     0.04  -0.08   0.01     0.06   0.00  -0.05
    55   6    -0.02  -0.05   0.06     0.04  -0.17   0.03     0.06   0.04  -0.14
    56   1    -0.02  -0.02   0.09     0.08  -0.19   0.03     0.00   0.05  -0.16
    57   1    -0.02  -0.04   0.03    -0.02  -0.19   0.03     0.08   0.05  -0.17
    58   1    -0.03  -0.08   0.07     0.05  -0.19   0.03     0.11   0.04  -0.16
    59   6    -0.03  -0.06   0.09     0.12  -0.05   0.02     0.03  -0.01   0.00
    60   1    -0.03  -0.06   0.08     0.13   0.02  -0.05     0.03  -0.05   0.09
    61   1    -0.02  -0.03   0.13     0.21  -0.06   0.06    -0.05   0.00  -0.04
    62   1    -0.05  -0.10   0.11     0.08  -0.10   0.04     0.11   0.00  -0.03
    63   1    -0.03  -0.08   0.01    -0.01  -0.07   0.00     0.12  -0.02  -0.03
    64   6     0.00  -0.03  -0.01    -0.01   0.13   0.01     0.00  -0.04   0.06
    65   8    -0.01  -0.05  -0.01    -0.03   0.20   0.00     0.00  -0.06   0.06
    66   6     0.01  -0.01  -0.01     0.00   0.04   0.02     0.00  -0.01   0.06
    67   8     0.02  -0.02  -0.01    -0.01   0.05   0.02     0.01  -0.01   0.06
    68   6     0.00  -0.01  -0.01     0.00   0.04  -0.02     0.00  -0.01   0.09
    69   8    -0.01  -0.01  -0.02     0.00   0.04  -0.04     0.00   0.00   0.13
    70   1     0.00  -0.01  -0.02     0.01   0.06   0.09     0.00  -0.01   0.06
    71   1     0.00  -0.01  -0.03     0.02   0.04   0.06     0.00  -0.01   0.07
                     4                      5                      6
                     A                      A                      A
 Frequencies --    42.8943                52.7781                56.3724
 Red. masses --     5.3179                 2.7766                 2.7494
 Frc consts  --     0.0058                 0.0046                 0.0051
 IR Inten    --     0.6144                 0.0455                 0.1230
  Atom  AN      X      Y      Z        X      Y      Z        X      Y      Z
     1  74     0.00   0.02  -0.01     0.00   0.00  -0.01     0.00  -0.02  -0.01
     2  15     0.00   0.00   0.00     0.00   0.00   0.00     0.00   0.01   0.01
     3   6    -0.01  -0.06  -0.01    -0.01  -0.02   0.00     0.02  -0.01  -0.01
     4   6     0.00  -0.13  -0.02    -0.01  -0.10  -0.02     0.03  -0.12  -0.08
     5   1     0.04  -0.15  -0.02     0.03  -0.12  -0.03     0.08  -0.15  -0.10
     6   1     0.00  -0.14  -0.02     0.01  -0.11  -0.03     0.07  -0.14  -0.09
     7   1    -0.04  -0.16  -0.01    -0.06  -0.12  -0.03    -0.06  -0.15  -0.10
     8   6    -0.06  -0.05  -0.02    -0.07   0.01   0.02    -0.05   0.05   0.05
     9   1    -0.16  -0.06  -0.08    -0.13  -0.02   0.02    -0.13   0.00   0.06
    10   1     0.01  -0.11  -0.05    -0.05   0.01   0.02    -0.02   0.06   0.04
    11   1    -0.07   0.04   0.05    -0.07   0.07   0.05    -0.06   0.12   0.09
    12   1     0.04  -0.05   0.01     0.04   0.01  -0.01     0.10   0.04  -0.01
    13   6     0.02   0.00   0.05     0.00   0.00   0.02    -0.02   0.02   0.02
    14   6     0.07   0.03   0.05     0.00   0.02   0.03    -0.06   0.05   0.05
    15   1     0.07   0.01   0.02     0.01   0.04   0.04    -0.05   0.10   0.10
    16   1     0.06   0.04   0.10     0.02   0.01   0.03    -0.02   0.03   0.03
    17   1     0.11   0.05   0.04    -0.02   0.02   0.02    -0.13   0.05   0.03
    18   6     0.00  -0.02   0.06     0.01  -0.01   0.03     0.01   0.00   0.05
    19   1    -0.04  -0.04   0.07     0.02  -0.02   0.02     0.06   0.00   0.03
    20   1     0.01  -0.02   0.10     0.00  -0.01   0.03    -0.04   0.01   0.04
    21   1    -0.01  -0.02   0.03     0.01  -0.02   0.04     0.01  -0.04   0.10
    22   1     0.02  -0.01   0.08     0.00   0.00   0.01    -0.02   0.03  -0.01
    23   6    -0.01   0.03  -0.03     0.01   0.00   0.01     0.01   0.01   0.01
    24   6    -0.08   0.02  -0.11     0.07   0.00   0.05     0.16   0.01   0.13
    25   1    -0.10   0.05  -0.15     0.08  -0.03   0.07     0.19  -0.05   0.20
    26   1    -0.08   0.06  -0.13     0.08  -0.02   0.06     0.15  -0.03   0.15
    27   1    -0.12  -0.04  -0.10     0.09   0.05   0.05     0.23   0.13   0.11
    28   6     0.01  -0.01   0.02    -0.01   0.04  -0.03    -0.04   0.11  -0.10
    29   1    -0.01  -0.10   0.01     0.01   0.10  -0.03     0.02   0.25  -0.12
    30   1     0.00   0.03  -0.02     0.00   0.02  -0.01    -0.03   0.07  -0.06
    31   1     0.06   0.00   0.09    -0.05   0.03  -0.07    -0.16   0.10  -0.20
    32   1     0.02   0.10  -0.03    -0.02  -0.05   0.01    -0.07  -0.10   0.04
    33  15     0.00  -0.02   0.00    -0.01   0.00   0.00     0.00   0.00  -0.01
    34   6     0.02  -0.09  -0.02     0.00   0.02   0.02     0.01   0.01   0.00
    35   6     0.04  -0.06   0.04    -0.05  -0.10  -0.07     0.05   0.08   0.06
    36   1     0.04  -0.13   0.01    -0.03  -0.05  -0.03     0.04   0.06   0.04
    37   1     0.09  -0.06   0.13    -0.17  -0.10  -0.17     0.12   0.08   0.11
    38   1     0.01   0.04   0.02     0.01  -0.25  -0.05     0.00   0.16   0.06
    39   6    -0.04  -0.10  -0.11     0.15   0.04   0.13    -0.07   0.00  -0.05
    40   1    -0.04  -0.15  -0.13     0.17   0.09   0.15    -0.06  -0.02  -0.06
    41   1    -0.07  -0.03  -0.13     0.21  -0.08   0.15    -0.12   0.06  -0.05
    42   1    -0.06  -0.12  -0.15     0.19   0.11   0.17    -0.10  -0.05  -0.09
    43   1     0.05  -0.16  -0.01    -0.06   0.14   0.01     0.05  -0.06  -0.01
    44   6    -0.03  -0.03   0.06     0.00   0.00   0.01     0.02   0.01  -0.01
    45   6     0.01  -0.05   0.06    -0.05  -0.03   0.06     0.07   0.03  -0.04
    46   1     0.00  -0.01   0.00    -0.03  -0.09   0.15     0.06   0.05  -0.10
    47   1    -0.03  -0.06   0.11     0.01   0.00   0.02     0.05   0.01  -0.01
    48   1     0.08  -0.08   0.06    -0.16  -0.02   0.04     0.14   0.03  -0.02
    49   6    -0.10   0.00   0.07     0.06   0.03   0.04    -0.02  -0.01  -0.03
    50   1    -0.10   0.00   0.11     0.02   0.02   0.03     0.01   0.00  -0.02
    51   1    -0.13   0.02   0.07     0.14   0.03   0.00    -0.08  -0.01   0.00
    52   1    -0.10   0.02   0.02     0.07   0.08   0.11    -0.03  -0.05  -0.08
    53   1    -0.02  -0.05   0.10    -0.01   0.01  -0.04     0.02   0.02   0.04
    54   6     0.00   0.01  -0.02     0.00   0.01   0.00    -0.03   0.01   0.01
    55   6     0.00  -0.01   0.00     0.01   0.10  -0.09    -0.03  -0.01   0.06
    56   1     0.02  -0.02   0.01    -0.08   0.12  -0.12     0.00   0.00   0.09
    57   1    -0.01  -0.02   0.01     0.05   0.12  -0.12    -0.03  -0.01   0.07
    58   1    -0.01  -0.01   0.01     0.04   0.11  -0.11    -0.06  -0.02   0.08
    59   6     0.02   0.02  -0.06    -0.08  -0.04   0.08    -0.02   0.02  -0.02
    60   1     0.02   0.03  -0.03    -0.09  -0.12   0.20    -0.01   0.03  -0.06
    61   1     0.01  -0.01  -0.10    -0.21   0.01   0.05     0.02   0.00  -0.02
    62   1     0.05   0.06  -0.08     0.00  -0.04   0.05    -0.05   0.02  -0.02
    63   1    -0.01   0.03   0.00     0.08  -0.05   0.00    -0.06   0.02   0.00
    64   6     0.02  -0.09   0.00    -0.02  -0.03  -0.01     0.01  -0.02   0.00
    65   8     0.05  -0.16   0.01    -0.04  -0.05  -0.01     0.02  -0.03   0.00
    66   6     0.01   0.17  -0.04    -0.01   0.04  -0.02    -0.03  -0.01  -0.01
    67   8     0.02   0.29  -0.06    -0.03   0.07  -0.03    -0.07   0.00  -0.01
    68   6     0.01   0.04   0.09     0.03   0.00  -0.01     0.01  -0.02   0.00
    69   8     0.01   0.05   0.16     0.06   0.00  -0.03     0.01  -0.02  -0.01
    70   1    -0.02  -0.01  -0.14    -0.01   0.00  -0.03     0.00  -0.02  -0.03
    71   1    -0.01   0.00  -0.12    -0.01   0.00  -0.03     0.00  -0.01   0.00
                     7                      8                      9
                     A                      A                      A
 Frequencies --    68.4697                74.4334                80.4642
 Red. masses --     9.5016                 9.1017                 4.2397
 Frc consts  --     0.0262                 0.0297                 0.0162
 IR Inten    --     1.1555                 0.7415                 0.0412
  Atom  AN      X      Y      Z        X      Y      Z        X      Y      Z
     1  74    -0.04  -0.01   0.00     0.00  -0.06   0.01     0.00  -0.03   0.00
     2  15    -0.03  -0.01   0.00    -0.01  -0.03   0.00    -0.01  -0.01   0.00
     3   6    -0.03  -0.02   0.00    -0.01   0.00   0.01     0.01   0.00  -0.01
     4   6    -0.03  -0.01  -0.01    -0.02   0.05   0.04     0.02   0.00  -0.04
     5   1    -0.04   0.01   0.01    -0.04   0.07   0.05     0.02  -0.02  -0.07
     6   1    -0.02  -0.03  -0.02    -0.03   0.06   0.05     0.03   0.02  -0.04
     7   1    -0.03   0.01  -0.04     0.02   0.07   0.05     0.00  -0.02  -0.02
     8   6    -0.02  -0.02   0.00     0.02  -0.01   0.01     0.01   0.01   0.00
     9   1     0.03  -0.02   0.03     0.05  -0.01   0.02    -0.03   0.01  -0.03
    10   1    -0.06   0.01   0.01     0.00   0.00   0.02     0.05  -0.01  -0.02
    11   1    -0.01  -0.06  -0.05     0.02  -0.04  -0.01     0.01   0.04   0.04
    12   1    -0.03  -0.02   0.00    -0.05  -0.01   0.00     0.03   0.01  -0.01
    13   6    -0.06   0.00   0.01    -0.07   0.00   0.02    -0.05   0.00  -0.02
    14   6    -0.09   0.01   0.02    -0.06  -0.02   0.01    -0.05  -0.03  -0.03
    15   1    -0.08   0.04   0.06    -0.07  -0.07  -0.02    -0.06  -0.05  -0.04
    16   1    -0.07  -0.01   0.00    -0.10   0.01   0.03    -0.07  -0.01  -0.03
    17   1    -0.14   0.00   0.01     0.00   0.00   0.01    -0.03  -0.03  -0.02
    18   6    -0.05  -0.01   0.02    -0.13  -0.01   0.01    -0.08   0.01  -0.03
    19   1    -0.04  -0.02   0.01    -0.14   0.01   0.02    -0.07   0.04  -0.03
    20   1    -0.06  -0.01   0.02    -0.16   0.00   0.02    -0.12   0.02  -0.05
    21   1    -0.05  -0.02   0.03    -0.14  -0.05  -0.01    -0.09  -0.03  -0.03
    22   1    -0.06   0.01  -0.01    -0.06   0.04   0.04    -0.05   0.03  -0.01
    23   6    -0.02  -0.02   0.01     0.05   0.00   0.01    -0.01   0.01  -0.02
    24   6     0.06  -0.01   0.09     0.10   0.00   0.02    -0.04   0.00  -0.07
    25   1     0.09  -0.05   0.15     0.10  -0.03   0.00    -0.06   0.01  -0.11
    26   1     0.04  -0.04   0.10     0.14   0.00   0.03    -0.03   0.03  -0.08
    27   1     0.12   0.05   0.07     0.10   0.03   0.03    -0.07  -0.03  -0.06
    28   6    -0.05   0.05  -0.04     0.05   0.05   0.04     0.00  -0.01   0.01
    29   1    -0.02   0.14  -0.05     0.04   0.06   0.05    -0.01  -0.07   0.00
    30   1    -0.04   0.01  -0.01     0.08   0.07   0.03    -0.01   0.04  -0.03
    31   1    -0.12   0.03  -0.11     0.02   0.06   0.06     0.03   0.01   0.07
    32   1    -0.06  -0.09   0.02     0.05  -0.02   0.01     0.01   0.05  -0.02
    33  15    -0.03   0.02   0.00     0.02  -0.04   0.01     0.01   0.01   0.00
    34   6    -0.03   0.03   0.00    -0.04  -0.02  -0.01     0.00   0.04   0.01
    35   6    -0.06  -0.02  -0.03    -0.02   0.06  -0.03    -0.02  -0.01  -0.03
    36   1    -0.04   0.03  -0.01    -0.07   0.04  -0.05     0.01   0.08   0.02
    37   1    -0.11  -0.01  -0.10     0.05   0.06   0.01    -0.09   0.00  -0.14
    38   1    -0.04  -0.10  -0.02    -0.02   0.13  -0.06    -0.01  -0.13   0.02
    39   6     0.03   0.04   0.05    -0.11  -0.02  -0.03     0.07   0.05   0.07
    40   1    -0.01   0.06   0.05    -0.15  -0.03  -0.04     0.02   0.08   0.07
    41   1     0.08  -0.01   0.03    -0.12   0.02  -0.06     0.13  -0.01   0.04
    42   1     0.05   0.08   0.11    -0.13  -0.06  -0.02     0.10   0.09   0.15
    43   1    -0.05   0.09  -0.01    -0.03  -0.06   0.01    -0.03   0.10   0.01
    44   6    -0.04   0.01  -0.01     0.08  -0.01  -0.01     0.06   0.03   0.01
    45   6    -0.08   0.00   0.01     0.09  -0.02  -0.01     0.03  -0.01   0.06
    46   1    -0.07  -0.02   0.06     0.09  -0.03  -0.01     0.04  -0.07   0.13
    47   1    -0.06   0.01  -0.01     0.10  -0.01  -0.01     0.08   0.01   0.04
    48   1    -0.14   0.01   0.00     0.08  -0.01  -0.01    -0.06  -0.02   0.04
    49   6    -0.02   0.03   0.00     0.12  -0.03  -0.01     0.14   0.07   0.04
    50   1    -0.05   0.02   0.00     0.16  -0.01  -0.02     0.13   0.06   0.04
    51   1     0.03   0.02  -0.02     0.12  -0.02  -0.01     0.19   0.09   0.00
    52   1    -0.01   0.07   0.04     0.13  -0.07   0.00     0.15   0.08   0.11
    53   1    -0.04   0.00  -0.04     0.07   0.03  -0.03     0.05   0.06  -0.05
    54   6    -0.03   0.01  -0.01     0.02  -0.01   0.00    -0.02   0.02   0.01
    55   6    -0.03  -0.04   0.01     0.02   0.04  -0.04    -0.03  -0.09   0.11
    56   1     0.00  -0.08  -0.01    -0.02   0.06  -0.05     0.07  -0.18   0.08
    57   1    -0.06  -0.06   0.05     0.05   0.05  -0.06    -0.09  -0.13   0.21
    58   1    -0.03  -0.01   0.00     0.04   0.04  -0.05    -0.06  -0.04   0.10
    59   6     0.02   0.03  -0.04    -0.01  -0.02   0.00     0.08   0.06  -0.06
    60   1     0.03   0.09  -0.14    -0.02  -0.06   0.06     0.09   0.18  -0.27
    61   1     0.13   0.02   0.02    -0.08  -0.02  -0.03     0.29   0.03   0.03
    62   1    -0.06   0.00   0.00     0.03   0.00  -0.02    -0.08   0.02   0.00
    63   1    -0.06   0.04   0.00     0.06  -0.02   0.01    -0.11   0.07   0.01
    64   6     0.15  -0.01   0.01    -0.13   0.11  -0.02     0.08   0.02   0.00
    65   8     0.41  -0.01   0.01    -0.28   0.35  -0.06     0.18   0.10  -0.01
    66   6     0.19   0.02   0.00     0.09   0.11  -0.02    -0.10   0.04  -0.01
    67   8     0.51   0.06   0.00     0.20   0.35  -0.07    -0.22   0.13  -0.03
    68   6    -0.07  -0.02  -0.03     0.00  -0.06   0.01    -0.01  -0.03   0.00
    69   8    -0.10  -0.02  -0.07    -0.01  -0.06   0.00    -0.01  -0.03   0.00
    70   1    -0.08  -0.03  -0.01    -0.01  -0.06   0.06     0.01  -0.04  -0.02
    71   1    -0.08   0.00   0.01     0.01  -0.07  -0.02     0.01  -0.04   0.02
                    10                     11                     12
                     A                      A                      A
 Frequencies --    87.3644                94.3235                98.9012
 Red. masses --     3.4742                 2.8604                 5.0996
 Frc consts  --     0.0156                 0.0150                 0.0294
 IR Inten    --     0.4052                 0.1995                 0.5781
  Atom  AN      X      Y      Z        X      Y      Z        X      Y      Z
     1  74     0.00  -0.01   0.00     0.00   0.00  -0.01     0.00   0.01   0.01
     2  15     0.00   0.00   0.00     0.00  -0.03   0.00     0.01   0.04  -0.01
     3   6     0.02   0.01   0.00     0.00  -0.03   0.01    -0.02   0.04   0.00
     4   6     0.02   0.01  -0.02    -0.01   0.17   0.06    -0.02   0.09   0.04
     5   1     0.02   0.01  -0.03    -0.12   0.26   0.16    -0.04   0.12   0.10
     6   1     0.03   0.02  -0.02    -0.03   0.10   0.06    -0.04   0.04   0.05
     7   1     0.02   0.00  -0.01     0.12   0.28  -0.01     0.02   0.13   0.01
     8   6     0.02   0.01   0.00     0.15  -0.12  -0.07     0.00   0.01  -0.04
     9   1     0.01   0.01  -0.01     0.29  -0.05  -0.07     0.08   0.04  -0.01
    10   1     0.04   0.00  -0.01     0.09  -0.11  -0.05    -0.08   0.03  -0.01
    11   1     0.02   0.02   0.01     0.15  -0.26  -0.13     0.01  -0.03  -0.13
    12   1     0.02   0.01   0.00    -0.12  -0.11   0.03    -0.06   0.02   0.00
    13   6     0.00   0.00  -0.02     0.02  -0.04   0.02     0.08   0.02  -0.01
    14   6    -0.01  -0.01  -0.02    -0.03   0.03   0.07     0.04   0.07   0.02
    15   1     0.00   0.00  -0.01    -0.02   0.10   0.14     0.06   0.18   0.10
    16   1     0.00  -0.02  -0.03     0.02  -0.01   0.05     0.12   0.02   0.00
    17   1    -0.02  -0.02  -0.01    -0.13   0.03   0.03    -0.08   0.06   0.00
    18   6     0.01   0.01  -0.02     0.10  -0.08   0.08     0.21   0.01   0.02
    19   1     0.02   0.01  -0.02     0.14  -0.13   0.05     0.22  -0.04   0.00
    20   1     0.01   0.00  -0.03     0.12  -0.08   0.10     0.29  -0.02   0.03
    21   1     0.01   0.01  -0.01     0.11  -0.06   0.13     0.23   0.11   0.06
    22   1     0.00   0.00  -0.02     0.02  -0.07  -0.04     0.07  -0.05  -0.08
    23   6    -0.01   0.00  -0.01    -0.02  -0.04   0.00    -0.02   0.02  -0.01
    24   6    -0.04   0.00  -0.03     0.06  -0.05   0.05    -0.03   0.03   0.01
    25   1    -0.04   0.01  -0.05     0.10  -0.08   0.17    -0.02   0.04   0.06
    26   1    -0.04   0.01  -0.04    -0.02  -0.05   0.03    -0.08   0.02   0.00
    27   1    -0.05  -0.03  -0.03     0.16  -0.01  -0.02     0.00   0.03  -0.02
    28   6     0.00  -0.02   0.00    -0.05   0.00  -0.08    -0.03   0.01  -0.05
    29   1    -0.01  -0.05   0.00    -0.01   0.11  -0.08    -0.02   0.08  -0.04
    30   1    -0.01  -0.01  -0.01    -0.04  -0.05  -0.03    -0.03  -0.06   0.00
    31   1     0.02  -0.02   0.02    -0.12  -0.02  -0.17    -0.04  -0.02  -0.13
    32   1     0.00   0.02  -0.01    -0.07  -0.10   0.02    -0.04   0.02   0.00
    33  15     0.00  -0.03   0.01    -0.01   0.02  -0.02     0.01  -0.05   0.03
    34   6     0.01  -0.03   0.02     0.01   0.01  -0.01    -0.05  -0.03   0.02
    35   6     0.03   0.01   0.05     0.00  -0.02   0.00    -0.04   0.03  -0.02
    36   1     0.01  -0.05   0.02     0.03  -0.01   0.02    -0.09   0.03  -0.03
    37   1     0.09   0.01   0.14    -0.03  -0.02  -0.02     0.01   0.03  -0.01
    38   1     0.02   0.11   0.02     0.00  -0.06   0.02    -0.03   0.07  -0.05
    39   6    -0.04  -0.04   0.00     0.05   0.02   0.01    -0.12  -0.03   0.02
    40   1     0.03  -0.03   0.02     0.06   0.02   0.01    -0.16  -0.03   0.01
    41   1    -0.11   0.00   0.06     0.06  -0.01   0.01    -0.12   0.00   0.00
    42   1    -0.08  -0.08  -0.08     0.06   0.04   0.01    -0.13  -0.08   0.04
    43   1     0.04  -0.06   0.01     0.00   0.04  -0.02    -0.05  -0.06   0.03
    44   6    -0.02  -0.03   0.02    -0.03   0.01  -0.01     0.05  -0.03   0.02
    45   6     0.04   0.00  -0.03    -0.03   0.01  -0.01     0.03  -0.06   0.05
    46   1     0.02   0.06  -0.12    -0.03   0.03  -0.02     0.05  -0.12   0.10
    47   1    -0.01  -0.03   0.00    -0.04   0.01   0.00     0.08  -0.04   0.03
    48   1     0.14   0.00  -0.01    -0.01   0.01  -0.01    -0.04  -0.06   0.03
    49   6    -0.09  -0.07  -0.02    -0.05   0.02  -0.01     0.14  -0.03   0.04
    50   1    -0.08  -0.07  -0.02    -0.06   0.01   0.00     0.15  -0.02   0.02
    51   1    -0.16  -0.09   0.02    -0.06   0.01   0.00     0.18  -0.02   0.01
    52   1    -0.11  -0.09  -0.09    -0.06   0.03  -0.02     0.15  -0.04   0.10
    53   1    -0.01  -0.04   0.08    -0.03   0.00   0.00     0.04   0.00  -0.04
    54   6     0.00  -0.02   0.01    -0.03   0.02  -0.01     0.02  -0.06   0.03
    55   6     0.01   0.14  -0.09    -0.03   0.00   0.01     0.02  -0.04   0.01
    56   1    -0.11   0.26  -0.06    -0.02   0.00   0.02     0.00  -0.04   0.01
    57   1     0.11   0.19  -0.21    -0.04   0.00   0.03     0.03  -0.04   0.00
    58   1     0.03   0.08  -0.08    -0.05   0.01   0.02     0.03  -0.04   0.01
    59   6    -0.14  -0.09   0.12    -0.02   0.02  -0.02     0.00  -0.07   0.05
    60   1    -0.15  -0.22   0.35    -0.02   0.04  -0.03     0.00  -0.08   0.01
    61   1    -0.38  -0.03   0.04    -0.01   0.02  -0.02     0.01  -0.05   0.07
    62   1     0.03  -0.05   0.06    -0.03   0.02  -0.02    -0.03  -0.08   0.06
    63   1     0.12  -0.10   0.01    -0.05   0.02  -0.01     0.03  -0.07   0.03
    64   6     0.09   0.06   0.00     0.00   0.00  -0.01     0.00  -0.04   0.02
    65   8     0.21   0.15  -0.01     0.01   0.02  -0.01     0.00  -0.12   0.03
    66   6    -0.04   0.01   0.00    -0.03   0.03  -0.02    -0.02   0.05   0.00
    67   8    -0.09   0.04  -0.01    -0.06   0.06  -0.02    -0.05   0.13  -0.01
    68   6     0.00  -0.01  -0.01     0.01   0.00   0.03    -0.08  -0.01  -0.10
    69   8     0.00  -0.01  -0.02     0.04   0.01   0.09    -0.19  -0.04  -0.26
    70   1    -0.01  -0.01   0.00     0.01   0.00  -0.02     0.02   0.00  -0.01
    71   1    -0.01   0.00   0.03     0.01   0.00   0.00     0.02   0.01   0.01
                    13                     14                     15
                     A                      A                      A
 Frequencies --   101.1055               106.8988               109.8675
 Red. masses --     5.7739                 3.6495                 3.8602
 Frc consts  --     0.0348                 0.0246                 0.0275
 IR Inten    --     0.1023                 0.2221                 0.1109
  Atom  AN      X      Y      Z        X      Y      Z        X      Y      Z
     1  74     0.01   0.00   0.05     0.00   0.01   0.00    -0.01  -0.03   0.01
     2  15     0.01  -0.04   0.02     0.04  -0.03  -0.04     0.05   0.03   0.03
     3   6     0.05  -0.03   0.00     0.02  -0.05  -0.03     0.11   0.05   0.01
     4   6     0.05   0.01  -0.01     0.02  -0.03   0.00     0.12  -0.02  -0.06
     5   1     0.02   0.02  -0.02     0.01  -0.02   0.03     0.16  -0.08  -0.14
     6   1     0.06   0.02  -0.01    -0.01  -0.05   0.01     0.16   0.04  -0.06
     7   1     0.06   0.02  -0.02     0.04  -0.02   0.00     0.05  -0.09  -0.01
     8   6     0.07  -0.04  -0.01     0.03  -0.08  -0.08     0.08   0.09   0.07
     9   1     0.10  -0.03  -0.02     0.04  -0.06  -0.10     0.01   0.06   0.07
    10   1     0.07  -0.05  -0.01     0.02  -0.11  -0.08     0.13   0.10   0.06
    11   1     0.07  -0.06  -0.03     0.03  -0.08  -0.08     0.08   0.14   0.12
    12   1     0.03  -0.04   0.01    -0.01  -0.07  -0.02     0.18   0.09   0.00
    13   6    -0.05  -0.02  -0.01     0.03  -0.02  -0.02     0.09   0.02   0.02
    14   6    -0.05  -0.08  -0.03     0.09  -0.06  -0.06     0.10   0.03   0.02
    15   1    -0.06  -0.15  -0.07     0.08  -0.11  -0.12     0.11   0.06   0.02
    16   1    -0.10  -0.05  -0.04     0.06  -0.04  -0.04     0.13   0.01   0.02
    17   1     0.02  -0.08  -0.01     0.17  -0.06  -0.04     0.08   0.02   0.02
    18   6    -0.12  -0.01  -0.04    -0.05  -0.01  -0.06     0.15   0.03   0.01
    19   1    -0.12   0.03  -0.03    -0.11   0.00  -0.03     0.14   0.02   0.01
    20   1    -0.16   0.00  -0.05    -0.04  -0.01  -0.05     0.20   0.01   0.01
    21   1    -0.12  -0.06  -0.06    -0.06  -0.01  -0.13     0.16   0.09   0.02
    22   1    -0.04   0.02   0.02     0.03   0.00   0.04     0.08  -0.03   0.01
    23   6     0.02  -0.02   0.00     0.12   0.00  -0.02     0.05   0.04   0.02
    24   6     0.04  -0.03  -0.02     0.19  -0.01  -0.01    -0.02   0.04  -0.03
    25   1     0.04  -0.05  -0.04     0.21  -0.05   0.00    -0.05   0.07  -0.10
    26   1     0.06  -0.01  -0.03     0.21   0.00  -0.01     0.01   0.05  -0.03
    27   1     0.04  -0.03  -0.02     0.22   0.03  -0.02    -0.08  -0.01   0.00
    28   6     0.01   0.00   0.01     0.12   0.07   0.02     0.08  -0.02   0.06
    29   1     0.02  -0.04   0.00     0.10   0.11   0.04     0.05  -0.11   0.06
    30   1     0.01   0.04  -0.02     0.17   0.07   0.04     0.05   0.01   0.03
    31   1     0.02   0.01   0.06     0.08   0.07   0.00     0.14  -0.01   0.12
    32   1     0.02  -0.01   0.01     0.13  -0.04  -0.04     0.09   0.09   0.01
    33  15     0.00   0.05  -0.01    -0.03   0.02   0.04    -0.06   0.00  -0.03
    34   6     0.03   0.02  -0.01    -0.10   0.03   0.02    -0.06   0.01  -0.02
    35   6     0.02  -0.04   0.01    -0.10   0.07  -0.03    -0.07  -0.03  -0.02
    36   1     0.04  -0.07   0.00    -0.17   0.02  -0.08    -0.03   0.02   0.01
    37   1    -0.01  -0.04   0.04    -0.07   0.06   0.03    -0.12  -0.03  -0.09
    38   1     0.03  -0.04   0.00    -0.07   0.14  -0.10    -0.07  -0.11   0.02
    39   6     0.10   0.02  -0.02    -0.15   0.03   0.02    -0.01   0.01  -0.01
    40   1     0.13   0.00  -0.03    -0.19   0.03   0.01    -0.01   0.01  -0.01
    41   1     0.12  -0.01  -0.02    -0.14   0.05   0.00     0.01  -0.02  -0.01
    42   1     0.12   0.07  -0.04    -0.15   0.00   0.05     0.00   0.04   0.01
    43   1     0.02   0.04  -0.01    -0.12   0.01   0.05    -0.07   0.04  -0.03
    44   6    -0.06   0.02  -0.02    -0.07   0.00   0.04    -0.06   0.00  -0.03
    45   6    -0.02   0.09  -0.09    -0.14  -0.01   0.06    -0.08   0.00  -0.03
    46   1    -0.04   0.19  -0.20    -0.14   0.03   0.09    -0.08  -0.01   0.00
    47   1    -0.11   0.04  -0.05    -0.17  -0.02   0.07    -0.07   0.01  -0.05
    48   1     0.13   0.09  -0.06    -0.14  -0.03   0.05    -0.12   0.01  -0.03
    49   6    -0.20  -0.02  -0.06    -0.06   0.03   0.06    -0.05   0.01  -0.03
    50   1    -0.17  -0.01  -0.04    -0.14   0.00   0.05    -0.05   0.00  -0.03
    51   1    -0.31  -0.03   0.00     0.02   0.01   0.03    -0.04   0.01  -0.04
    52   1    -0.22  -0.05  -0.19    -0.06   0.12   0.11    -0.05   0.01  -0.02
    53   1    -0.05  -0.02   0.08    -0.07  -0.05   0.00    -0.06   0.00  -0.05
    54   6     0.02   0.07  -0.03     0.01  -0.01   0.04    -0.14   0.02  -0.01
    55   6     0.02   0.06  -0.03     0.01  -0.04  -0.01    -0.14   0.00   0.07
    56   1     0.03   0.03  -0.06     0.00  -0.04  -0.01    -0.09  -0.03   0.07
    57   1     0.01   0.05   0.00    -0.01  -0.05  -0.03    -0.15  -0.01   0.12
    58   1     0.03   0.09  -0.05     0.04  -0.06  -0.01    -0.19   0.03   0.08
    59   6     0.03   0.08  -0.08     0.03  -0.01   0.07    -0.14   0.03  -0.07
    60   1     0.03   0.08  -0.13     0.03   0.00   0.08    -0.13   0.05  -0.14
    61   1     0.06   0.06  -0.07     0.04   0.00   0.08    -0.08   0.01  -0.05
    62   1    -0.01   0.09  -0.07     0.05  -0.04   0.07    -0.20   0.04  -0.05
    63   1     0.02   0.09  -0.01     0.02  -0.02   0.04    -0.19   0.04  -0.03
    64   6    -0.02  -0.04   0.06     0.01   0.00   0.00    -0.01   0.00   0.00
    65   8    -0.06  -0.13   0.07     0.03   0.00   0.00    -0.02   0.04   0.00
    66   6    -0.01   0.05   0.05    -0.01   0.00   0.00     0.01  -0.01   0.00
    67   8    -0.04   0.15   0.03    -0.06  -0.01   0.00     0.04   0.03   0.00
    68   6     0.01  -0.03  -0.10    -0.01   0.01   0.01     0.01  -0.03   0.00
    69   8     0.03  -0.06  -0.31    -0.03   0.01   0.01     0.03  -0.03  -0.01
    70   1     0.01   0.00   0.04     0.00   0.01   0.02     0.00  -0.02   0.02
    71   1     0.01   0.00   0.03     0.01   0.01  -0.03     0.00  -0.02   0.01
                    16                     17                     18
                     A                      A                      A
 Frequencies --   116.7090               120.7182               126.7097
 Red. masses --     5.1493                 2.9694                 3.5892
 Frc consts  --     0.0413                 0.0255                 0.0340
 IR Inten    --     1.2020                 0.5289                 1.8143
  Atom  AN      X      Y      Z        X      Y      Z        X      Y      Z
     1  74     0.02  -0.01  -0.03     0.00   0.04   0.00    -0.01   0.01   0.02
     2  15     0.03   0.00   0.03     0.01  -0.02   0.03     0.01   0.01  -0.01
     3   6     0.11   0.03   0.00     0.06  -0.02   0.01    -0.02  -0.03  -0.01
     4   6     0.12   0.01  -0.09     0.06   0.00  -0.04    -0.02  -0.03   0.03
     5   1     0.11  -0.01  -0.14     0.03   0.02  -0.03    -0.02   0.01   0.10
     6   1     0.18   0.03  -0.11     0.10  -0.02  -0.06    -0.04  -0.10   0.03
     7   1     0.08  -0.01  -0.10     0.06   0.03  -0.08     0.00   0.01  -0.02
     8   6     0.13   0.05   0.07     0.10  -0.04   0.01    -0.02  -0.06  -0.08
     9   1     0.15   0.03   0.12     0.13  -0.03   0.02     0.00  -0.04  -0.11
    10   1     0.11   0.11   0.08     0.11  -0.02   0.01    -0.04  -0.11  -0.08
    11   1     0.13   0.03   0.05     0.10  -0.07   0.01    -0.02  -0.07  -0.10
    12   1     0.16   0.05   0.01     0.07  -0.04   0.03    -0.04  -0.06   0.01
    13   6    -0.02   0.03   0.07    -0.03  -0.01   0.04     0.03   0.00  -0.02
    14   6     0.01   0.04   0.06     0.03  -0.03   0.01     0.12  -0.04  -0.07
    15   1     0.00  -0.03   0.01     0.02  -0.13  -0.07     0.12  -0.05  -0.14
    16   1    -0.04   0.09   0.12    -0.03   0.01   0.06     0.13  -0.05  -0.06
    17   1     0.10   0.08   0.05     0.16  -0.01   0.03     0.17  -0.07  -0.03
    18   6    -0.12  -0.01   0.08    -0.16  -0.02   0.02    -0.03   0.05  -0.08
    19   1    -0.09   0.02   0.08    -0.18   0.02   0.05    -0.16   0.05  -0.02
    20   1    -0.21   0.03   0.09    -0.21   0.01   0.04     0.06   0.02  -0.06
    21   1    -0.13  -0.11   0.09    -0.17  -0.09  -0.03    -0.04   0.12  -0.20
    22   1    -0.01   0.07   0.10    -0.02   0.04   0.11     0.03   0.00   0.06
    23   6    -0.01  -0.02   0.04    -0.03  -0.04   0.03     0.03   0.03  -0.01
    24   6    -0.04  -0.01   0.08    -0.01  -0.04   0.06     0.10   0.03   0.01
    25   1    -0.05   0.04   0.11     0.00  -0.04   0.09     0.12   0.01   0.09
    26   1    -0.08  -0.04   0.10    -0.04  -0.05   0.06     0.04   0.02   0.00
    27   1    -0.04   0.00   0.08     0.01  -0.02   0.04     0.17   0.06  -0.04
    28   6    -0.02  -0.05  -0.01    -0.04  -0.04  -0.02     0.02   0.08  -0.03
    29   1     0.01  -0.14  -0.06    -0.01  -0.11  -0.06     0.03   0.15  -0.02
    30   1    -0.08   0.01  -0.08    -0.09   0.01  -0.07     0.05   0.05   0.00
    31   1     0.01  -0.03   0.07    -0.03  -0.02   0.05    -0.03   0.07  -0.08
    32   1    -0.03  -0.02   0.05    -0.05  -0.06   0.04     0.01  -0.01  -0.01
    33  15     0.02   0.01   0.00    -0.01  -0.01  -0.02    -0.01  -0.03  -0.02
    34   6     0.02   0.02   0.01     0.02  -0.03  -0.02     0.04  -0.06  -0.01
    35   6     0.01  -0.01  -0.02     0.05   0.00   0.05     0.02  -0.12   0.01
    36   1    -0.01  -0.04  -0.04     0.10   0.05   0.09     0.10  -0.03   0.07
    37   1    -0.02  -0.02   0.00     0.06   0.01   0.00    -0.04  -0.11  -0.11
    38   1     0.04  -0.01  -0.05     0.00  -0.03   0.11     0.01  -0.25   0.08
    39   6     0.05   0.02   0.08    -0.04  -0.04  -0.08     0.10  -0.05   0.00
    40   1     0.02   0.07   0.09     0.02  -0.07  -0.08     0.09  -0.05   0.00
    41   1     0.08  -0.02   0.08    -0.10   0.01  -0.05     0.13  -0.09  -0.01
    42   1     0.06   0.02   0.14    -0.07  -0.07  -0.16     0.11  -0.02   0.03
    43   1     0.00   0.06   0.01     0.06  -0.08  -0.03     0.03  -0.02  -0.02
    44   6    -0.03  -0.01   0.04     0.01  -0.01  -0.05     0.04  -0.01  -0.03
    45   6    -0.01  -0.02   0.03    -0.09  -0.03   0.01     0.09   0.00  -0.07
    46   1    -0.02   0.03  -0.02    -0.06  -0.10   0.14     0.11  -0.08  -0.05
    47   1    -0.05  -0.04   0.08    -0.02   0.00  -0.07     0.17   0.04  -0.11
    48   1     0.07  -0.05   0.03    -0.24  -0.01  -0.01     0.04   0.05  -0.05
    49   6    -0.12   0.02   0.04     0.16   0.01  -0.01     0.06  -0.07  -0.06
    50   1    -0.17   0.00   0.07     0.11  -0.01  -0.06     0.19  -0.02  -0.07
    51   1    -0.13   0.01   0.05     0.30  -0.01  -0.08    -0.06  -0.03  -0.03
    52   1    -0.14   0.07   0.00     0.18   0.06   0.14     0.06  -0.22  -0.13
    53   1    -0.02  -0.05   0.08     0.00   0.01  -0.15     0.03   0.04  -0.01
    54   6     0.05   0.00  -0.01    -0.05  -0.04   0.01    -0.05   0.01  -0.02
    55   6     0.06   0.00  -0.06    -0.06  -0.01   0.05    -0.05   0.05   0.03
    56   1     0.03  -0.01  -0.09    -0.04   0.05   0.12    -0.04   0.02   0.01
    57   1     0.05   0.00  -0.06    -0.04   0.00  -0.02    -0.03   0.05   0.09
    58   1     0.09   0.02  -0.08    -0.09  -0.09   0.09    -0.09   0.10   0.02
    59   6     0.06   0.00   0.01    -0.09  -0.05   0.03    -0.08   0.01  -0.07
    60   1     0.06   0.00  -0.04    -0.09  -0.09   0.10    -0.08   0.00  -0.12
    61   1     0.10   0.02   0.06    -0.16  -0.04   0.00    -0.06   0.00  -0.07
    62   1     0.01  -0.04   0.04    -0.03  -0.03   0.01    -0.12   0.04  -0.07
    63   1     0.08  -0.01  -0.01    -0.07  -0.06  -0.02    -0.06   0.03  -0.01
    64   6     0.00   0.00  -0.03     0.01   0.01   0.00     0.00   0.01   0.03
    65   8    -0.06   0.01  -0.04     0.01  -0.03   0.00     0.00   0.02   0.03
    66   6     0.00  -0.01  -0.03     0.00   0.02   0.00    -0.01   0.01   0.03
    67   8    -0.03  -0.02  -0.03     0.00   0.00   0.00    -0.01  -0.01   0.03
    68   6    -0.14   0.00   0.00     0.02   0.03  -0.03    -0.09   0.02   0.05
    69   8    -0.34   0.01   0.05     0.04   0.03  -0.06    -0.18   0.02   0.08
    70   1     0.02  -0.01  -0.05     0.00   0.03   0.01     0.02   0.02   0.02
    71   1     0.02   0.00  -0.06     0.01   0.02  -0.02     0.02   0.00   0.00
                    19                     20                     21
                     A                      A                      A
 Frequencies --   129.9730               138.6664               150.5562
 Red. masses --     2.8023                 2.9804                 6.0653
 Frc consts  --     0.0279                 0.0338                 0.0810
 IR Inten    --     0.7849                 1.2850                 0.6258
  Atom  AN      X      Y      Z        X      Y      Z        X      Y      Z
     1  74    -0.01   0.01  -0.01     0.00  -0.04   0.01     0.12   0.00   0.01
     2  15     0.00   0.01   0.01    -0.01   0.04   0.00     0.00   0.01  -0.01
     3   6     0.02   0.00   0.00    -0.03   0.02   0.01    -0.08   0.00   0.02
     4   6     0.02   0.02  -0.02    -0.04   0.02   0.03    -0.09   0.00   0.09
     5   1     0.00   0.05   0.04    -0.04   0.07   0.14    -0.09   0.05   0.19
     6   1     0.04  -0.05  -0.03    -0.04  -0.09   0.02    -0.13  -0.08   0.10
     7   1     0.02   0.06  -0.08    -0.03   0.08  -0.06    -0.06   0.06   0.04
     8   6     0.04  -0.01   0.00    -0.04   0.02  -0.01    -0.13   0.01  -0.01
     9   1     0.07   0.00   0.01    -0.02   0.02   0.01    -0.09   0.00   0.02
    10   1     0.03   0.00   0.01    -0.08   0.02   0.01    -0.20   0.02   0.01
    11   1     0.04  -0.04  -0.01    -0.04   0.00  -0.04    -0.12   0.01  -0.08
    12   1     0.02  -0.01   0.02    -0.04   0.01   0.01    -0.12   0.01  -0.01
    13   6     0.03   0.01   0.04     0.05   0.02   0.03    -0.04   0.03  -0.01
    14   6     0.16   0.01   0.00     0.21   0.02  -0.02    -0.08   0.02  -0.01
    15   1     0.16  -0.02  -0.10     0.22   0.05  -0.13    -0.09  -0.03   0.01
    16   1     0.16   0.02   0.07     0.26   0.00   0.03    -0.13   0.04   0.00
    17   1     0.26   0.02   0.02     0.27   0.01   0.00    -0.06   0.03  -0.02
    18   6    -0.08   0.02   0.01    -0.03   0.06  -0.03    -0.09   0.01  -0.01
    19   1    -0.19   0.01   0.06    -0.21   0.03   0.05    -0.04   0.04  -0.02
    20   1    -0.03   0.01   0.05     0.11   0.02   0.03    -0.18   0.04  -0.02
    21   1    -0.09   0.03  -0.12    -0.04   0.17  -0.21    -0.10  -0.08   0.02
    22   1     0.03   0.00   0.14     0.05  -0.01   0.14    -0.03   0.07  -0.02
    23   6    -0.05  -0.02   0.01    -0.07   0.02  -0.02    -0.07  -0.01  -0.03
    24   6    -0.03  -0.01   0.05    -0.04   0.03   0.02    -0.08   0.00   0.00
    25   1    -0.01  -0.02   0.10    -0.02   0.03   0.09    -0.07   0.01   0.04
    26   1    -0.06  -0.03   0.05    -0.10   0.01   0.02    -0.12  -0.02  -0.01
    27   1     0.01   0.01   0.03     0.01   0.05  -0.01    -0.05   0.00  -0.02
    28   6    -0.07  -0.03  -0.06    -0.09   0.02  -0.11    -0.09  -0.02  -0.10
    29   1    -0.03  -0.07  -0.10    -0.05   0.02  -0.15    -0.06   0.02  -0.12
    30   1    -0.12   0.00  -0.10    -0.15   0.03  -0.13    -0.12  -0.04  -0.09
    31   1    -0.06  -0.02  -0.02    -0.11   0.02  -0.11    -0.12  -0.02  -0.14
    32   1    -0.09  -0.04   0.03    -0.12   0.00   0.01    -0.11  -0.01   0.00
    33  15    -0.01  -0.02   0.02     0.01   0.02  -0.01    -0.01  -0.01  -0.01
    34   6    -0.08   0.01   0.00     0.05   0.03   0.01    -0.08   0.00  -0.03
    35   6    -0.10   0.00  -0.10     0.07   0.05   0.07    -0.11  -0.03  -0.12
    36   1    -0.19  -0.04  -0.14     0.10   0.05   0.08    -0.16  -0.04  -0.14
    37   1    -0.10   0.00  -0.05     0.08   0.05   0.08    -0.14  -0.03  -0.11
    38   1    -0.04   0.05  -0.17     0.03   0.06   0.10    -0.06  -0.03  -0.16
    39   6    -0.05   0.01   0.06     0.02   0.03  -0.02    -0.06   0.00   0.00
    40   1    -0.10   0.03   0.05     0.06   0.01  -0.01    -0.11   0.01  -0.01
    41   1     0.01  -0.03   0.02    -0.01   0.05   0.00    -0.02  -0.02  -0.03
    42   1    -0.02   0.03   0.13     0.01   0.01  -0.06    -0.04   0.01   0.05
    43   1    -0.13   0.04   0.03     0.08   0.01  -0.01    -0.13   0.02   0.01
    44   6     0.04   0.00   0.05    -0.04   0.01  -0.02    -0.04  -0.02   0.00
    45   6     0.18  -0.02   0.01    -0.14   0.03   0.01    -0.07  -0.01  -0.01
    46   1     0.19  -0.07  -0.08    -0.15   0.11   0.03    -0.07   0.03  -0.01
    47   1     0.23   0.00   0.06    -0.21  -0.02   0.00    -0.10  -0.03   0.00
    48   1     0.25  -0.02   0.02    -0.12   0.00   0.00    -0.05  -0.02  -0.01
    49   6    -0.05  -0.03   0.01    -0.01   0.05   0.01    -0.08  -0.01  -0.01
    50   1     0.07   0.02   0.07    -0.15  -0.01  -0.02    -0.12  -0.03  -0.01
    51   1    -0.23   0.02   0.08     0.14   0.00  -0.04    -0.08  -0.03   0.00
    52   1    -0.07  -0.16  -0.13    -0.01   0.20   0.10    -0.09   0.02  -0.03
    53   1     0.04   0.05   0.14    -0.03  -0.05  -0.07    -0.03  -0.05   0.01
    54   6    -0.01  -0.01   0.01     0.03   0.02  -0.01    -0.11   0.01   0.02
    55   6    -0.01  -0.03   0.00     0.04   0.01  -0.03    -0.11   0.01   0.10
    56   1     0.00  -0.11  -0.07     0.03   0.07   0.02    -0.08  -0.04   0.08
    57   1    -0.02  -0.05   0.10     0.04   0.02  -0.11    -0.11   0.00   0.17
    58   1     0.01   0.06  -0.04     0.04  -0.06  -0.01    -0.15   0.07   0.09
    59   6     0.02   0.00   0.00     0.04   0.02   0.00    -0.14   0.00  -0.02
    60   1     0.02   0.03  -0.06     0.04   0.01   0.03    -0.14  -0.01  -0.08
    61   1     0.08   0.00   0.03     0.01   0.01  -0.02    -0.11   0.00   0.00
    62   1    -0.03  -0.02   0.02     0.07   0.02  -0.02    -0.20   0.01   0.00
    63   1    -0.01   0.01   0.02     0.04   0.01  -0.01    -0.15   0.00   0.00
    64   6     0.00   0.00  -0.01     0.00  -0.02   0.00     0.06   0.00   0.01
    65   8     0.02   0.00   0.00     0.00   0.03   0.00    -0.02   0.01   0.00
    66   6     0.00   0.00   0.00     0.00  -0.02   0.00     0.06   0.00   0.01
    67   8     0.01  -0.01   0.00     0.00   0.02  -0.01    -0.01   0.00   0.01
    68   6     0.05   0.01  -0.01     0.01  -0.04   0.01     0.05   0.00   0.01
    69   8     0.12   0.00  -0.03     0.01  -0.04   0.00    -0.06   0.00   0.01
    70   1    -0.01   0.00  -0.06    -0.01  -0.03   0.01     0.06  -0.01   0.03
    71   1    -0.01  -0.01  -0.07    -0.01  -0.03  -0.03     0.06   0.02   0.02
                    22                     23                     24
                     A                      A                      A
 Frequencies --   156.1783               168.9517               174.6641
 Red. masses --     3.0267                 3.3269                 2.7547
 Frc consts  --     0.0435                 0.0560                 0.0495
 IR Inten    --     0.0019                 3.4414                 0.4196
  Atom  AN      X      Y      Z        X      Y      Z        X      Y      Z
     1  74     0.00   0.00   0.00    -0.01   0.01   0.04    -0.01   0.00  -0.01
[...]
 .00004178,0.00005477,0.00003382,0.00003399,-0.00005632,0.00092238,-0.0
 0047171,0.00010958,0.00036644,-0.00004204,-0.00011061,-0.00018755,-0.0
 0015131,0.00000259,-0.00073357,0.00079856,0.00001259,-0.00000950,-0.00
 011857,0.00000436,0.00022941,0.00002384,0.00014588,-0.00009408,0.00001
 588,-0.00001036,0.00007439,-0.00010939,0.00004691,0.00007093,0.0000190
 1,0.00002072,-0.00000627,-0.00001633,-0.00000168,-0.00008324,0.0000227
 9,-0.00003847,0.00002948,-0.00000037,0.00005559,0.00002908,0.00001898,
 -0.00000671,0.00002336,-0.00008634,-0.00003652,0.00009247,0.00005580,-
 0.00002832,0.00079239,0.00038934,0.00016492,-0.00052338,0.00006511,0.0
 0021591,0.00064201,-0.00011282,-0.00065092,0.00001283,-0.00006261,0.00
 006129,0.00026340,0.00000701,0.00001601,-0.00005632,-0.00010037,-0.000
 20296,0.00003461,-0.00000164,0.00003120,0.00007405,-0.00001716,-0.0000
 5135,0.00000114,0.00001161,-0.00000014,-0.00006245,0.00002710,0.000097
 56,0.00176553,-0.00019094,-0.00059579,0.00011174,0.00024465,-0.0003807
 9,-0.00007691,-0.00048911,0.00021298,-0.00016492,0.00005637,0.00010421
 ,0.00015055,-0.00012231,-0.00006086,0.00000064,0.00004402,-0.00002694,
 -0.00087076,0.00031521,0.00064302,0.00003243,-0.00008686,0.00002412,0.
 00036774,-0.00010673,-0.00000497,0.00037115,0.00005443,-0.00053184,-0.
 00001719,0.00005185,-0.00004730,-0.00022976,-0.00001334,0.00017382,0.0
 0007749,0.00005461,-0.00004886,-0.00004137,-0.00011550,-0.00001413,-0.
 00004730,0.00002758,-0.00000868,0.00002165,-0.00000503,0.00004361,0.00
 010514,-0.00001793,-0.00004247,-0.00004936,0.00001751,0.00003056,-0.00
 002600,-0.00001306,-0.00001055,-0.00007417,-0.00008787,0.00007815,-0.0
 0010043,0.00006929,-0.00002521,-0.00074393,0.00011285,0.00020865,0.000
 04294,0.00003529,-0.00024457,-0.00005309,-0.00004709,0.00003674,-0.000
 00660,0.00001302,0.00000741,-0.00008168,-0.00002539,-0.00001687,0.0005
 0511,0.00034525,0.00005592,-0.00032677,-0.00019427,-0.00008546,-0.0000
 0793,-0.00011479,-0.00001288,0.00001733,0.00000241,0.00004632,0.000061
 53,0.00000692,0.00009386,-0.00010803,-0.00282358,0.00383251,0.00009923
 ,0.00014237,-0.00216078,-0.00003686,0.00211415,-0.00318225,-0.00000398
 ,0.00017708,0.00240942,0.00058505,0.11670927,-0.07039927,-0.00108192,-
 0.12901301,0.04832536,-0.02094370,0.05879704,-0.01064888,0.00136510,0.
 00063526,-0.00016810,-0.00022324,-0.00021488,-0.00009398,0.00004696,0.
 00002770,0.00002034,-0.00012669,-0.00007484,0.00003736,0.00000568,0.00
 001496,0.00002086,0.00002546,-0.00002418,-0.00001998,0.00027473,0.0000
 5370,0.00005629,0.00009346,-0.00006519,0.00001257,-0.00009992,-0.00008
 386,-0.00001439,-0.00007688,0.00006917,0.00019862,0.00002954,0.0000166
 4,-0.00012057,-0.00165449,0.00082421,-0.00016887,-0.00005141,0.0002293
 8,-0.00014595,-0.00016342,-0.00061243,0.00118191,0.00034268,0.00002165
 ,0.00016398,0.00027568,-0.00015678,-0.00022340,-0.00008778,0.00000574,
 0.00029366,0.00046757,-0.00003686,0.00019929,0.00017487,-0.00007105,-0
 .00019350,-0.00018343,-0.00067658,-0.00105812,0.00000752,-0.00071747,0
 .00014502,-0.00007394,-0.00010549,0.00032602,0.00025833,0.00001478,-0.
 00014347,0.00004544,-0.00005819,-0.00014595,-0.00005839,-0.00007503,0.
 00004058,-0.00000531,-0.00001237,-0.00001029,0.00003056,0.00000303,-0.
 00009063,-0.00000262,0.00000470,0.00002024,0.00002358,-0.00002514,-0.0
 0003246,-0.00012404,-0.00010522,0.00006066,0.00004902,0.00009636,-0.00
 001427,-0.00400403,-0.00478575,0.00159960,-0.00030836,-0.00000662,0.00
 014438,-0.00004922,0.00001452,0.00001274,0.00000238,0.00002712,-0.0000
 2336,0.00005145,-0.00008528,0.00002267,-0.00000652,-0.00000399,0.00001
 744,-0.00018478,0.00011507,-0.00003739,0.00011140,-0.00000454,-0.00008
 723,0.00006786,0.00000086,0.00003469,-0.00009069,-0.00012441,0.0001700
 8,-0.00003444,0.00008522,-0.00000693,0.00088393,0.00071067,0.00014076,
 -0.00018418,0.00044673,0.00047381,-0.00080216,0.00024630,0.00035609,-0
 .00009871,-0.00014434,-0.00016935,-0.00011511,-0.00003039,0.00006788,-
 0.00066918,0.00003599,-0.00039835,0.00006659,-0.00011518,0.00021587,-0
 .00014947,-0.00003432,-0.00003716,-0.00054226,0.00056339,-0.00010768,0
 .00034202,-0.00082641,0.00001884,0.00008374,-0.00013149,-0.00031209,-0
 .00007080,0.00007919,0.00008743,-0.00001035,0.00000778,-0.00001376,0.0
 0001812,-0.00006539,-0.00003978,0.00005100,0.00004440,0.00004003,-0.00
 018691,0.00009478,0.00019645,0.00015186,-0.00001857,-0.00025268,-0.000
 09627,-0.00003826,-0.00002860,0.00015612,0.00002074,0.00010522,-0.0000
 3657,-0.00002641,0.00000666,0.00195287,0.00127804,-0.00253179,-0.00051
 209,0.00002578,0.00226002,0.00223750,0.00221512,0.00187105,-0.00029924
 ,-0.00068196,-0.00210397,0.00938841,-0.01994282,0.00344518,-0.00325498
 ,0.00695754,-0.00120095,0.19448214,0.02875221,-0.02049260,0.00407056,0
 .00117556,-0.00121918,0.00038120,0.00020511,0.00001216,-0.00008430,0.0
 0002206,-0.00004252,0.00010773,-0.00001602,-0.00001556,0.00001422,0.00
 003316,0.00001375,-0.00000952,0.00000466,0.00000476,-0.00000303,0.0000
 9397,0.00003009,-0.00012800,0.00005301,-0.00002135,0.00001444,-0.00009
 061,-0.00001218,-0.00004186,-0.00005938,0.00003136,0.00016236,-0.00002
 301,-0.00001640,-0.00002343,-0.00074167,0.00031774,-0.00006104,0.00041
 571,-0.00005666,0.00012813,-0.00042203,0.00009501,0.00016116,-0.000077
 13,-0.00000110,0.00005427,-0.00002711,-0.00000497,-0.00002488,0.000422
 39,-0.00006950,-0.00014585,-0.00000231,-0.00000237,0.00002610,-0.00006
 487,-0.00003987,-0.00002729,-0.00043151,-0.00002066,-0.00015119,-0.000
 13529,-0.00034381,0.00005927,0.00018535,0.00005298,0.00009151,0.000115
 39,0.00007222,-0.00001801,0.00000198,-0.00007149,-0.00009014,-0.000057
 76,-0.00000928,0.00004378,-0.00001288,-0.00000388,-0.00001096,0.000024
 02,-0.00007959,-0.00004555,0.00000075,0.00000215,-0.00000189,0.0000247
 0,0.00002207,-0.00000536,-0.00001671,-0.00002501,-0.00000618,-0.000013
 02,0.00001622,0.00002224,-0.00080454,-0.00028862,0.00072984,-0.0000643
 5,-0.00013582,-0.00002498,-0.00001368,0.00001026,0.00003583,-0.0000147
 4,-0.00000795,0.00002269,0.00004641,-0.00005467,-0.00002358,-0.0000065
 0,0.00000106,-0.00000426,-0.00007470,0.00002312,0.00003023,0.00002039,
 -0.00002992,0.00000249,-0.00000096,-0.00000349,0.00001671,-0.00006117,
 0.00001492,0.00006792,0.00000634,0.00003815,-0.00003403,0.00075469,-0.
 00037191,0.00006664,0.00135112,-0.00005827,0.00008699,0.00013350,-0.00
 001988,-0.00040715,-0.00021011,-0.00005480,0.00001432,-0.00018217,0.00
 000419,0.00007290,0.00132098,-0.00020833,-0.00038059,-0.00017179,-0.00
 003952,0.00005666,-0.00020442,0.00000506,-0.00004813,0.00005739,0.0000
 1967,0.00044090,-0.00007680,-0.00006385,0.00000323,0.00011383,-0.00014
 773,-0.00004733,-0.00001653,0.00004037,0.00003693,-0.00001906,-0.00000
 640,0.00000747,0.00005450,-0.00003807,-0.00000483,0.00000844,0.0000041
 2,-0.00000982,-0.00007898,0.00004087,-0.00001838,0.00003206,0.00003007
 ,-0.00007484,-0.00004528,-0.00002821,-0.00000465,0.00004178,-0.0000289
 1,0.00001626,-0.00009628,0.00001434,0.00001873,-0.00008888,-0.00076426
 ,-0.00122827,-0.00002885,0.00018893,0.00067302,-0.00084265,0.00138297,
 0.00056620,0.00012184,-0.00019230,-0.00061815,-0.01012710,-0.01865435,
 0.00308242,0.00298690,0.00535900,-0.00101424,-0.03099521,0.05431455,-0
 .00560951,0.00780360,-0.01230770,-0.00002946,0.00047684,0.00094583,0.0
 0009633,0.00001885,-0.00002913,0.00000108,-0.00001195,0.00003767,-0.00
 001457,-0.00000155,0.00000080,0.00001335,0.00000432,0.00000121,0.00000
 500,-0.00000936,-0.00000463,0.00003253,0.00003441,-0.00005298,-0.00000
 188,-0.00000517,0.00000177,-0.00003818,0.00000344,-0.00000077,-0.00002
 924,-0.00000785,0.00005836,0.00001635,0.00000446,-0.00003086,-0.000028
 49,0.00002135,0.00005531,-0.00033160,0.00005567,-0.00018716,0.00065120
 ,0.00008915,-0.00002169,0.00003308,-0.00003359,-0.00001102,0.00011268,
 -0.00001660,-0.00003067,0.00004641,0.00001471,-0.00004248,0.00000477,-
 0.00001057,0.00001287,0.00004938,0.00001360,-0.00002193,-0.00026566,-0
 .00013617,-0.00006944,0.00002959,0.00000334,-0.00000689,-0.00020699,-0
 .00007865,0.00002122,-0.00001811,-0.00002969,-0.00001543,-0.00003530,0
 .00003921,0.00001986,0.00002589,-0.00000832,-0.00000652,0.00001327,0.0
 0000162,-0.00000139,0.00000402,0.00006776,0.00002993,-0.00000819,0.000
 00314,-0.00000373,-0.00001854,-0.00001298,0.00000587,0.00000041,-0.000
 00381,0.00000734,-0.00001705,-0.00002445,-0.00002143,0.00022154,0.0004
 3871,0.00113725,-0.00008331,-0.00006040,-0.00003365,0.00001164,0.00001
 581,-0.00001032,0.00000090,0.00000513,-0.00000137,0.00001567,0.0000025
 6,0.00000363,-0.00001965,-0.00001587,0.00000158,0.00000820,-0.00001241
 ,-0.00002728,-0.00000686,-0.00000343,-0.00000482,-0.00005281,-0.000020
 00,0.00000588,0.00006115,0.00004001,0.00002841,0.00000279,0.00001018,-
 0.00007751,0.00010093,0.00017573,-0.00019037,0.00103244,0.00015835,0.0
 0004461,0.00020836,-0.00062739,-0.00022235,-0.00021911,-0.00003542,0.0
 0005141,-0.00006634,-0.00000117,-0.00005716,-0.00132010,-0.00008568,0.
 00034477,0.00025583,0.00001764,0.00002301,0.00006077,-0.00002190,-0.00
 007423,0.00005516,0.00026900,0.00002229,-0.00002162,-0.00007871,-0.000
 22719,0.00016004,0.00004229,0.00007599,-0.00002014,-0.00000562,-0.0000
 1865,0.00002940,0.00002457,0.00000031,0.00000762,-0.00001391,0.0000125
 7,0.00000424,-0.00000296,-0.00000050,-0.00011048,0.00002795,0.00003657
 ,0.00002965,-0.00007222,-0.00007261,0.00002278,0.00003255,-0.00000240,
 0.00004825,-0.00001253,0.00000951,-0.00012664,-0.00005956,-0.00010995,
 0.00172230,-0.00447496,-0.00132819,-0.00025407,0.00066055,0.00050511,-
 0.00113230,0.00285511,-0.00109560,0.00020491,-0.00040708,0.00006885,0.
 00203878,0.00224485,0.00463622,-0.00061017,-0.00076341,-0.00185468,0.0
 2199347,-0.01051354,0.01116450,-0.02158480,-0.05872980,0.00914477,-0.0
 0419964,0.00473313,-0.00128148,0.00001729,0.00003302,-0.00028759,-0.00
 006869,-0.00003781,0.00007451,0.00003011,0.00004995,-0.00005342,0.0000
 4048,-0.00003370,0.00004911,-0.00000873,-0.00001235,-0.00000958,-0.000
 19930,-0.00005769,0.00023454,-0.00009723,0.00002801,-0.00003796,0.0001
 6798,0.00000994,0.00010905,0.00015178,-0.00005987,-0.00027337,0.000013
 73,0.00001238,0.00002071,0.00068917,-0.00073286,0.00029382,-0.00037527
 ,-0.00028344,0.00055139,-0.00095789,0.00033297,0.00038884,-0.00008566,
 0.00008375,-0.00022176,-0.00008525,0.00004654,0.00005796,-0.00051047,-
 0.00015154,-0.00044107,-0.00015663,0.00002881,-0.00002992,0.00005622,0
 .00017924,0.00015935,-0.00066898,0.00015496,-0.00022309,0.00034366,0.0
 0078882,-0.00018380,-0.00024003,0.00007445,0.00015619,-0.00019587,-0.0
 0015009,-0.00005173,-0.00000011,0.00016491,0.00017384,0.00012981,-0.00
 002307,-0.00009057,0.00003660,0.00000575,0.00003774,-0.00005763,-0.000
 03323,-0.00000032,-0.00000454,0.00000480,0.00001589,0.00001262,-0.0000
 3522,-0.00001958,0.00004778,0.00008640,0.00000787,-0.00003609,-0.00005
 684,-0.00000258,0.00136956,-0.00063101,-0.00009774,0.00000960,0.000157
 90,0.00034615,0.00002471,0.00000039,-0.00011468,0.00003499,0.00002042,
 -0.00004213,-0.00011736,0.00011657,0.00005063,-0.00000985,-0.00000405,
 0.00001814,0.00023932,-0.00004903,-0.00018298,-0.00004187,0.00008393,0
 .00001647,-0.00003444,0.00000443,-0.00000949,0.00011791,0.00002259,-0.
 00011935,0.00006633,-0.00009370,-0.00000463,-0.00165668,-0.00082819,0.
 00010610,-0.00012648,-0.00024644,-0.00010113,-0.00010242,0.00084402,0.
 00097191,0.00032172,0.00002737,0.00014573,0.00029506,0.00008798,-0.000
 27092,-0.00007153,0.00004071,0.00025927,0.00019529,0.00001012,-0.00021
 740,0.00045114,0.00008979,0.00016745,-0.00022352,0.00046460,-0.0011637
 5,0.00000028,0.00073615,-0.00006320,-0.00029192,0.00016733,-0.00007942
 ,0.00004613,-0.00004009,-0.00000855,0.00002888,0.00001904,-0.00002524,
 -0.00012363,0.00008119,0.00001954,-0.00000572,-0.00000951,0.00002262,0
 .00026224,-0.00003261,0.00006069,-0.00007865,0.00000602,0.00019344,0.0
 0008850,0.00006957,-0.00000334,-0.00009030,0.00007233,-0.00003440,0.00
 002893,-0.00004697,-0.00014089,0.00154392,-0.00147946,0.00231667,-0.00
 028103,-0.00004371,-0.00227217,0.00268658,-0.00216147,-0.00212144,-0.0
 0048465,0.00068493,0.00209117,0.00959643,0.01984410,-0.00307130,-0.003
 37852,-0.00692257,0.00111421,-0.17798198,0.00783589,-0.01873577,0.1954
 8859,-0.02922325,-0.02337058,-0.00070609,0.00086571,-0.00038075,0.0002
 9261,-0.00003328,-0.00015139,0.00010683,0.00000991,0.00002528,-0.00004
 164,-0.00005024,-0.00002988,0.00001617,-0.00000440,0.00000642,0.000008
 22,0.00002405,-0.00001380,-0.00000342,0.00004163,0.00004492,0.00001986
 ,0.00005292,-0.00003107,0.00001303,-0.00002994,-0.00002610,-0.00000737
 ,-0.00001219,0.00006207,0.00004079,-0.00001296,0.00002090,-0.00007955,
 -0.00057568,-0.00033841,-0.00001843,-0.00114057,-0.00013180,-0.0000706
 9,0.00017536,-0.00003164,0.00038834,0.00015699,-0.00005328,0.00001181,
 0.00014633,-0.00002886,-0.00006035,-0.00151154,-0.00005573,0.00043409,
 0.00022586,0.00002244,0.00004008,0.00021743,-0.00004587,-0.00003794,0.
 00032404,-0.00013709,-0.00052779,0.00007295,-0.00005656,-0.00003233,-0
 .00000740,-0.00010457,0.00003293,0.00007939,0.00002547,-0.00003192,0.0
 0003280,-0.00000248,-0.00007372,-0.00002908,-0.00002705,0.00000777,-0.
 00000213,-0.00000357,-0.00001614,0.00001676,0.00001407,-0.00002450,0.0
 0000480,0.00000509,0.00000522,0.00000851,-0.00001276,-0.00001586,-0.00
 004857,-0.00004733,0.00003119,0.00001343,0.00004622,0.00003677,-0.0011
 4882,-0.00127214,0.00042194,-0.00025586,0.00005197,-0.00010267,-0.0000
 1850,-0.00008293,0.00007541,-0.00002918,0.00002682,0.00000212,0.000018
 68,-0.00002231,0.00001212,-0.00000304,-0.00000080,-0.00000015,-0.00011
 657,0.00006951,0.00002828,0.00005376,-0.00002080,-0.00003924,0.0000331
 7,-0.00000116,0.00001044,-0.00006149,-0.00006967,0.00008822,0.00000729
 ,0.00002891,-0.00002999,0.00071913,0.00031730,-0.00002302,-0.00045095,
 -0.00007528,-0.00012366,0.00054001,-0.00000197,-0.00017657,0.00006687,
 -0.00001379,-0.00005397,0.00004969,0.00000056,0.00001350,-0.00042265,-
 0.00005104,0.00016656,0.00008719,-0.00003238,0.00003342,0.00000810,-0.
 00000482,-0.00002380,0.00038994,0.00006363,0.00010949,0.00013975,-0.00
 034107,0.00002329,-0.00013652,0.00001682,0.00004234,-0.00002056,-0.000
 04741,-0.00006525,-0.00000336,0.00000653,-0.00000156,0.00000809,-0.000
 01765,-0.00001051,-0.00002275,0.00001408,0.00000748,-0.00007082,0.0000
 3706,0.00009344,0.00005898,0.00000175,-0.00013087,-0.00005249,-0.00002
 196,-0.00000862,0.00006908,0.00000049,0.00004080,0.00002939,-0.0000117
 5,0.00001183,0.00087331,-0.00000402,-0.00082108,-0.00005377,0.00015188
 ,0.00064254,0.00077475,0.00139913,0.00019507,-0.00004398,-0.00018458,-
 0.00046699,0.01006696,-0.01812297,0.00459566,-0.00294498,0.00521703,-0
 .00137088,-0.01260666,-0.01841690,0.00200239,0.03468113,0.05622163,0.0
 0338840,-0.00296764,-0.01031844,-0.00038989,0.00026044,0.00091306,0.00
 018230,0.00000718,0.00005120,-0.00002450,-0.00000381,-0.00001036,0.000
 02380,0.00002970,0.00000189,0.00000535,0.00000085,-0.00000521,0.000020
 61,-0.00002035,0.00000889,-0.00012633,-0.00004414,0.00004469,0.0000161
 6,-0.00002497,0.00000244,0.00006591,0.00001993,0.00001045,0.00002838,0
 .00002877,-0.00011216,-0.00000793,-0.00000860,-0.00005275,0.00020129,-
 0.00010248,-0.00018621,0.00146424,-0.00012692,0.00014735,0.00041667,0.
 00035323,-0.00049929,-0.00029116,0.00007005,0.00003496,-0.00010790,-0.
 00001399,-0.00003925,-0.00091067,0.00019451,0.00015445,0.00000902,-0.0
 0000107,-0.00009082,0.00019150,0.00000778,0.00004387,-0.00029598,-0.00
 030209,-0.00015110,-0.00004002,0.00003114,-0.00024379,-0.00010120,0.00
 010225,-0.00003708,-0.00000391,0.00001898,-0.00002482,0.00003796,-0.00
 004415,0.00004918,-0.00000508,0.00000832,-0.00000489,-0.00005685,0.000
 02742,0.00000372,0.00000503,-0.00002119,0.00000015,-0.00002348,0.00001
 854,-0.00000362,-0.00000260,-0.00000160,0.00000547,0.00002712,0.000013
 10,0.00000119,0.00002770,-0.00005805,-0.00007047,0.00034979,0.00027986
 ,0.00095919,-0.00011790,0.00005476,0.00005225,0.00001202,-0.00002996,0
 .00001659,-0.00000647,0.00000526,0.00000241,-0.00000317,0.00001047,0.0
 0000241,-0.00000803,-0.00000443,-0.00000314,0.00001928,-0.00001137,-0.
 00001689,0.00000034,0.00001202,0.00000462,0.00000374,-0.00000258,-0.00
 000467,-0.00002405,-0.00000429,-0.00001805,-0.00003641,0.00001133,-0.0
 0001893,-0.00027379,-0.00010866,0.00006994,-0.00020094,-0.00005638,-0.
 00012101,0.00048859,-0.00010791,0.00001900,0.00000013,0.00003033,-0.00
 000285,0.00009640,0.00000142,-0.00003639,0.00017569,-0.00001175,-0.000
 09170,0.00002530,-0.00001107,-0.00002952,-0.00000526,0.00001382,0.0000
 1156,-0.00037636,0.00012528,-0.00010108,-0.00002186,0.00011254,-0.0000
 1568,0.00015012,-0.00003973,-0.00003436,0.00000959,0.00004006,0.000057
 40,0.00000643,0.00000542,-0.00000687,-0.00001736,0.00000709,0.00000395
 ,0.00002268,-0.00000897,-0.00000013,0.00005627,-0.00005980,-0.00008122
 ,-0.00005349,0.00003136,0.00009709,0.00001947,0.00001386,0.00000379,-0
 .00006357,-0.00000258,-0.00001518,0.00000644,-0.00000534,-0.00004308,-
 0.00143535,-0.00349552,0.00004450,0.00022969,0.00038920,-0.00026246,0.
 00107465,0.00296145,-0.00244189,-0.00026766,-0.00043424,0.00094226,-0.
 00123146,0.00541525,0.00385419,0.00037451,-0.00162181,-0.00160863,-0.0
 1541389,0.00394989,-0.00109586,0.01271195,-0.00490545,0.01028573\\0.00
 000099,-0.00002512,-0.00002019,0.00000099,0.00000294,-0.00000364,0.000
 01367,-0.00000720,0.00001452,-0.00000673,-0.00000395,0.,0.00000232,0.0
 0000732,0.00000123,-0.00000204,0.00000120,0.00000443,-0.00000276,0.000
 00185,0.00000638,-0.00000949,0.00001290,0.00000618,0.00000073,-0.00000
 237,0.00000485,-0.00000188,0.00000387,0.00000586,-0.00000476,0.0000055
 7,0.00000155,-0.00000703,0.00000695,-0.00000082,-0.00000103,-0.0000044
 6,-0.00000603,0.00000598,-0.00000508,0.00000165,0.00000042,-0.00000329
 ,-0.00000489,0.00000295,-0.00000420,-0.00000335,0.00000202,-0.00000608
 ,-0.00000036,0.00000414,0.00000291,0.00000800,-0.00000300,0.00000472,-
 0.00001090,0.00000228,-0.00000283,-0.00000526,0.00000022,0.00000075,-0
 .00000508,0.00000329,-0.00000704,0.00000107,-0.00000056,-0.00000028,0.
 00000183,-0.00000642,-0.00000176,0.00000969,0.00000336,-0.00000366,0.0
 0000533,-0.00000070,-0.00000812,0.00001007,-0.00000097,-0.00000247,0.0
 0001189,-0.00000105,-0.00000785,0.00000678,0.00000363,-0.00000403,0.00
 000892,0.00000161,-0.00000877,0.00000666,0.00000195,-0.00000790,0.0000
 0400,0.00000350,-0.00000672,0.00000462,0.00002300,-0.00000758,0.000001
 57,-0.00000908,0.00000895,0.00000157,-0.00000058,0.00000735,-0.0000106
 5,-0.00000449,0.00000813,-0.00000027,0.00000040,0.00000646,-0.00000365
 ,-0.00000118,0.00000595,-0.00000163,0.00000095,0.00000662,0.00000036,-
 0.00000370,0.00000621,0.00000218,-0.00000277,0.00000199,-0.00000040,0.
 00000147,0.00000517,0.00000194,-0.00000305,0.00000423,0.00000089,0.000
 00267,0.00000456,-0.00000973,-0.00000531,0.00000295,-0.00000656,0.0000
 0033,0.00000615,-0.00000733,0.00000080,0.00000547,-0.00001074,0.000002
 23,0.00000461,-0.00000706,0.00000697,-0.00000054,-0.00000774,0.0000043
 0,0.00000481,-0.00000822,-0.00000241,-0.00000255,-0.00000789,0.0000019
 1,-0.00000819,-0.00000923,0.00000227,-0.00000111,-0.00000825,0.0000007
 7,-0.00000292,0.00000695,-0.00000159,-0.00000146,-0.00000581,0.0000002
 9,0.00000031,0.00000081,0.00000011,0.00000235,-0.00000423,0.00000285,-
 0.00000355,-0.00000164,-0.00000245,-0.00000014,-0.00000540,0.00000188,
 -0.00000471,0.00000727,-0.00000120,-0.00000080,0.00000494,0.00000140,-
 0.00000423,0.00000348,0.00000067,-0.00000251,-0.00000084,-0.00000782,0
 .00001963,0.00000815,0.00000608,-0.00001423,-0.00000305,-0.00001316,0.
 00001473,0.00000455,0.00000204,0.00000462,-0.00000560,-0.00001072,-0.0
 0001153,0.00001650,-0.00000276,0.00000895,0.00000065,0.00000942,-0.000
 00338,-0.00000408,-0.00000618,0.00000146,0.00000320\\\@


 THE ATTENTION SPAN OF A COMPUTER IS AS LONG
 AS ITS EXTENSION CORD.
 Job cpu time:  0 days  4 hours 10 minutes 32.6 seconds.
 File lengths (MBytes):  RWF=   1128 Int=      0 D2E=      0 Chk=      9 Scr=      1
 Normal termination of Gaussian 09 at Thu Oct 27 00:09:27 2016.
